
     Program PWSCF v.7.3.1 starts on  6May2024 at 18:49:39 

     This program is part of the open-source Quantum ESPRESSO suite
     for quantum simulation of materials; please cite
         "P. Giannozzi et al., J. Phys.:Condens. Matter 21 395502 (2009);
         "P. Giannozzi et al., J. Phys.:Condens. Matter 29 465901 (2017);
         "P. Giannozzi et al., J. Chem. Phys. 152 154105 (2020);
          URL http://www.quantum-espresso.org", 
     in publications or presentations arising from this work. More details at
     http://www.quantum-espresso.org/quote

     Serial version
     2180 MiB available memory on the printing compute node when the environment starts

     Reading input from Be1.pw.in

     Current dimensions of program PWSCF are:
     Max number of different atomic species (ntypx) = 10
     Max number of k-points (npk) =  40000
     Max angular momentum in pseudopotentials (lmaxx) =  4


     G-vector sticks info
     --------------------
     sticks:   dense  smooth     PW     G-vecs:    dense   smooth      PW
     Sum         235     235     87                 4025     4025     925

     Using Slab Decomposition



     bravais-lattice index     =            0
     lattice parameter (alat)  =       4.5866  a.u.
     unit-cell volume          =     117.8506 (a.u.)^3
     number of atoms/cell      =            2
     number of atomic types    =            1
     number of electrons       =         4.00
     number of Kohn-Sham states=            4
     kinetic-energy cutoff     =      40.0000  Ry
     charge density cutoff     =     160.0000  Ry
     scf convergence threshold =      2.0E-02
     mixing beta               =       0.1000
     number of iterations used =            8  plain     mixing
     Exchange-correlation= PBE
                           (   1   4   3   4   0   0   0)

     celldm(1)=   4.586614  celldm(2)=   0.000000  celldm(3)=   0.000000
     celldm(4)=   0.000000  celldm(5)=   0.000000  celldm(6)=   0.000000

     crystal axes: (cart. coord. in units of alat)
               a(1) = (   0.997203   0.070166  -0.025735 )  
               a(2) = (  -0.476715   0.847500  -0.004260 )  
               a(3) = (  -0.082096  -0.018824   1.392554 )  

     reciprocal axes: (cart. coord. in units 2 pi/alat)
               b(1) = (  0.966200  0.543807  0.064312 )  
               b(2) = ( -0.079602  1.135218  0.010653 )  
               b(3) = (  0.017612  0.013522  0.719326 )  


     PseudoPot. # 1 for Be read from file:
     ../pseudo/Be.pbe-n-rrkjus_psl.1.0.0.UPF
     MD5 check sum: 734a25375992c446e1da9bf329ae4716
     Pseudo is Ultrasoft + core correction, Zval =  2.0
     Generated using &quot;atomic&quot; code by A. Dal Corso  v.6.6
     Using radial grid of 1041 points,  4 beta functions with: 
                l(1) =   0
                l(2) =   0
                l(3) =   1
                l(4) =   1
     Q(r) pseudized with 0 coefficients 


     atomic species   valence    mass     pseudopotential
     Be                2.00     9.01218     Be( 1.00)

     No symmetry found


                                    s                        frac. trans.

      isym =  1     identity                                     

 cryst.   s( 1) = (     1          0          0      )
                  (     0          1          0      )
                  (     0          0          1      )

 cart.    s( 1) = (  1.0000000 -0.0000000  0.0000000 )
                  (  0.0000000  1.0000000  0.0000000 )
                  ( -0.0000000  0.0000000  1.0000000 )


   Cartesian axes

     site n.     atom                  positions (alat units)
         1        Be     tau(   1) = (   0.7222034   0.1322564   1.1032251  )
         2        Be     tau(   2) = (  -0.2566692   0.6740725   0.3675966  )

   Crystallographic axes

     site n.     atom                  positions (cryst. coord.)
         1        Be     tau(   1) = (  0.8406660  0.1044030  0.8080865  )
         2        Be     tau(   2) = (  0.1422122  0.7895668  0.2690164  )

     number of k points=   512  Fermi-Dirac smearing, width (Ry)=  0.0019
                       cart. coord. in units 2pi/alat
        k(    1) = (   0.0000000   0.0000000   0.0000000), wk =   0.0039062
        k(    2) = (   0.0022015   0.0016903   0.0899158), wk =   0.0039062
        k(    3) = (   0.0044030   0.0033806   0.1798315), wk =   0.0039062
        k(    4) = (   0.0066046   0.0050709   0.2697473), wk =   0.0039062
        k(    5) = (  -0.0088061  -0.0067612  -0.3596630), wk =   0.0039062
        k(    6) = (  -0.0066046  -0.0050709  -0.2697473), wk =   0.0039062
        k(    7) = (  -0.0044030  -0.0033806  -0.1798315), wk =   0.0039062
        k(    8) = (  -0.0022015  -0.0016903  -0.0899158), wk =   0.0039062
        k(    9) = (  -0.0099503   0.1419023   0.0013316), wk =   0.0039062
        k(   10) = (  -0.0077488   0.1435926   0.0912473), wk =   0.0039062
        k(   11) = (  -0.0055473   0.1452829   0.1811631), wk =   0.0039062
        k(   12) = (  -0.0033457   0.1469732   0.2710788), wk =   0.0039062
        k(   13) = (  -0.0187564   0.1351411  -0.3583314), wk =   0.0039062
        k(   14) = (  -0.0165548   0.1368314  -0.2684157), wk =   0.0039062
        k(   15) = (  -0.0143533   0.1385217  -0.1784999), wk =   0.0039062
        k(   16) = (  -0.0121518   0.1402120  -0.0885842), wk =   0.0039062
        k(   17) = (  -0.0199006   0.2838046   0.0026631), wk =   0.0039062
        k(   18) = (  -0.0176991   0.2854949   0.0925789), wk =   0.0039062
        k(   19) = (  -0.0154975   0.2871852   0.1824946), wk =   0.0039062
        k(   20) = (  -0.0132960   0.2888755   0.2724104), wk =   0.0039062
        k(   21) = (  -0.0287067   0.2770434  -0.3569999), wk =   0.0039062
        k(   22) = (  -0.0265051   0.2787337  -0.2670841), wk =   0.0039062
        k(   23) = (  -0.0243036   0.2804240  -0.1771684), wk =   0.0039062
        k(   24) = (  -0.0221021   0.2821143  -0.0872526), wk =   0.0039062
        k(   25) = (  -0.0298509   0.4257069   0.0039947), wk =   0.0039062
        k(   26) = (  -0.0276494   0.4273972   0.0939105), wk =   0.0039062
        k(   27) = (  -0.0254478   0.4290875   0.1838262), wk =   0.0039062
        k(   28) = (  -0.0232463   0.4307778   0.2737420), wk =   0.0039062
        k(   29) = (  -0.0386570   0.4189457  -0.3556683), wk =   0.0039062
        k(   30) = (  -0.0364554   0.4206360  -0.2657526), wk =   0.0039062
        k(   31) = (  -0.0342539   0.4223263  -0.1758368), wk =   0.0039062
        k(   32) = (  -0.0320524   0.4240166  -0.0859210), wk =   0.0039062
        k(   33) = (   0.0398012  -0.5676092  -0.0053263), wk =   0.0039062
        k(   34) = (   0.0420027  -0.5659189   0.0845895), wk =   0.0039062
        k(   35) = (   0.0442042  -0.5642286   0.1745052), wk =   0.0039062
        k(   36) = (   0.0464057  -0.5625383   0.2644210), wk =   0.0039062
        k(   37) = (   0.0309951  -0.5743704  -0.3649893), wk =   0.0039062
        k(   38) = (   0.0331966  -0.5726801  -0.2750735), wk =   0.0039062
        k(   39) = (   0.0353981  -0.5709898  -0.1851578), wk =   0.0039062
        k(   40) = (   0.0375996  -0.5692995  -0.0952420), wk =   0.0039062
        k(   41) = (   0.0298509  -0.4257069  -0.0039947), wk =   0.0039062
        k(   42) = (   0.0320524  -0.4240166   0.0859210), wk =   0.0039062
        k(   43) = (   0.0342539  -0.4223263   0.1758368), wk =   0.0039062
        k(   44) = (   0.0364554  -0.4206360   0.2657526), wk =   0.0039062
        k(   45) = (   0.0210448  -0.4324681  -0.3636577), wk =   0.0039062
        k(   46) = (   0.0232463  -0.4307778  -0.2737420), wk =   0.0039062
        k(   47) = (   0.0254478  -0.4290875  -0.1838262), wk =   0.0039062
        k(   48) = (   0.0276494  -0.4273972  -0.0939105), wk =   0.0039062
        k(   49) = (   0.0199006  -0.2838046  -0.0026631), wk =   0.0039062
        k(   50) = (   0.0221021  -0.2821143   0.0872526), wk =   0.0039062
        k(   51) = (   0.0243036  -0.2804240   0.1771684), wk =   0.0039062
        k(   52) = (   0.0265051  -0.2787337   0.2670841), wk =   0.0039062
        k(   53) = (   0.0110945  -0.2905658  -0.3623262), wk =   0.0039062
        k(   54) = (   0.0132960  -0.2888755  -0.2724104), wk =   0.0039062
        k(   55) = (   0.0154975  -0.2871852  -0.1824946), wk =   0.0039062
        k(   56) = (   0.0176991  -0.2854949  -0.0925789), wk =   0.0039062
        k(   57) = (   0.0099503  -0.1419023  -0.0013316), wk =   0.0039062
        k(   58) = (   0.0121518  -0.1402120   0.0885842), wk =   0.0039062
        k(   59) = (   0.0143533  -0.1385217   0.1784999), wk =   0.0039062
        k(   60) = (   0.0165548  -0.1368314   0.2684157), wk =   0.0039062
        k(   61) = (   0.0011442  -0.1486635  -0.3609946), wk =   0.0039062
        k(   62) = (   0.0033457  -0.1469732  -0.2710788), wk =   0.0039062
        k(   63) = (   0.0055473  -0.1452829  -0.1811631), wk =   0.0039062
        k(   64) = (   0.0077488  -0.1435926  -0.0912473), wk =   0.0039062
        k(   65) = (   0.1207751   0.0679759   0.0080390), wk =   0.0039062
        k(   66) = (   0.1229766   0.0696662   0.0979548), wk =   0.0039062
        k(   67) = (   0.1251781   0.0713565   0.1878705), wk =   0.0039062
        k(   68) = (   0.1273796   0.0730468   0.2777863), wk =   0.0039062
        k(   69) = (   0.1119690   0.0612146  -0.3516240), wk =   0.0039062
        k(   70) = (   0.1141705   0.0629049  -0.2617082), wk =   0.0039062
        k(   71) = (   0.1163720   0.0645952  -0.1717925), wk =   0.0039062
        k(   72) = (   0.1185735   0.0662856  -0.0818767), wk =   0.0039062
        k(   73) = (   0.1108248   0.2098781   0.0093706), wk =   0.0039062
        k(   74) = (   0.1130263   0.2115684   0.0992863), wk =   0.0039062
        k(   75) = (   0.1152278   0.2132588   0.1892021), wk =   0.0039062
        k(   76) = (   0.1174293   0.2149491   0.2791179), wk =   0.0039062
        k(   77) = (   0.1020187   0.2031169  -0.3502924), wk =   0.0039062
        k(   78) = (   0.1042202   0.2048072  -0.2603767), wk =   0.0039062
        k(   79) = (   0.1064217   0.2064975  -0.1704609), wk =   0.0039062
        k(   80) = (   0.1086232   0.2081878  -0.0805452), wk =   0.0039062
        k(   81) = (   0.1008745   0.3517804   0.0107022), wk =   0.0039062
        k(   82) = (   0.1030760   0.3534707   0.1006179), wk =   0.0039062
        k(   83) = (   0.1052775   0.3551610   0.1905337), wk =   0.0039062
        k(   84) = (   0.1074790   0.3568513   0.2804494), wk =   0.0039062
        k(   85) = (   0.0920684   0.3450192  -0.3489609), wk =   0.0039062
        k(   86) = (   0.0942699   0.3467095  -0.2590451), wk =   0.0039062
        k(   87) = (   0.0964714   0.3483998  -0.1691293), wk =   0.0039062
        k(   88) = (   0.0986730   0.3500901  -0.0792136), wk =   0.0039062
        k(   89) = (   0.0909242   0.4936827   0.0120337), wk =   0.0039062
        k(   90) = (   0.0931257   0.4953730   0.1019495), wk =   0.0039062
        k(   91) = (   0.0953272   0.4970633   0.1918652), wk =   0.0039062
        k(   92) = (   0.0975287   0.4987536   0.2817810), wk =   0.0039062
        k(   93) = (   0.0821181   0.4869215  -0.3476293), wk =   0.0039062
        k(   94) = (   0.0843196   0.4886118  -0.2577135), wk =   0.0039062
        k(   95) = (   0.0865211   0.4903021  -0.1677978), wk =   0.0039062
        k(   96) = (   0.0887227   0.4919924  -0.0778820), wk =   0.0039062
        k(   97) = (   0.1605762  -0.4996333   0.0027127), wk =   0.0039062
        k(   98) = (   0.1627777  -0.4979430   0.0926285), wk =   0.0039062
        k(   99) = (   0.1649793  -0.4962527   0.1825443), wk =   0.0039062
        k(  100) = (   0.1671808  -0.4945624   0.2724600), wk =   0.0039062
        k(  101) = (   0.1517701  -0.5063945  -0.3569503), wk =   0.0039062
        k(  102) = (   0.1539717  -0.5047042  -0.2670345), wk =   0.0039062
        k(  103) = (   0.1561732  -0.5030139  -0.1771188), wk =   0.0039062
        k(  104) = (   0.1583747  -0.5013236  -0.0872030), wk =   0.0039062
        k(  105) = (   0.1506259  -0.3577310   0.0040443), wk =   0.0039062
        k(  106) = (   0.1528274  -0.3560407   0.0939601), wk =   0.0039062
        k(  107) = (   0.1550290  -0.3543504   0.1838758), wk =   0.0039062
        k(  108) = (   0.1572305  -0.3526601   0.2737916), wk =   0.0039062
        k(  109) = (   0.1418198  -0.3644922  -0.3556187), wk =   0.0039062
        k(  110) = (   0.1440214  -0.3628019  -0.2657029), wk =   0.0039062
        k(  111) = (   0.1462229  -0.3611116  -0.1757872), wk =   0.0039062
        k(  112) = (   0.1484244  -0.3594213  -0.0858714), wk =   0.0039062
        k(  113) = (   0.1406756  -0.2158287   0.0053759), wk =   0.0039062
        k(  114) = (   0.1428772  -0.2141384   0.0952916), wk =   0.0039062
        k(  115) = (   0.1450787  -0.2124481   0.1852074), wk =   0.0039062
        k(  116) = (   0.1472802  -0.2107578   0.2751231), wk =   0.0039062
        k(  117) = (   0.1318696  -0.2225899  -0.3542871), wk =   0.0039062
        k(  118) = (   0.1340711  -0.2208996  -0.2643714), wk =   0.0039062
        k(  119) = (   0.1362726  -0.2192093  -0.1744556), wk =   0.0039062
        k(  120) = (   0.1384741  -0.2175190  -0.0845399), wk =   0.0039062
        k(  121) = (   0.1307253  -0.0739264   0.0067075), wk =   0.0039062
        k(  122) = (   0.1329269  -0.0722361   0.0966232), wk =   0.0039062
        k(  123) = (   0.1351284  -0.0705458   0.1865390), wk =   0.0039062
        k(  124) = (   0.1373299  -0.0688555   0.2764547), wk =   0.0039062
        k(  125) = (   0.1219193  -0.0806876  -0.3529556), wk =   0.0039062
        k(  126) = (   0.1241208  -0.0789973  -0.2630398), wk =   0.0039062
        k(  127) = (   0.1263223  -0.0773070  -0.1731241), wk =   0.0039062
        k(  128) = (   0.1285238  -0.0756167  -0.0832083), wk =   0.0039062
        k(  129) = (   0.2415501   0.1359517   0.0160780), wk =   0.0039062
        k(  130) = (   0.2437516   0.1376420   0.1059938), wk =   0.0039062
        k(  131) = (   0.2459531   0.1393323   0.1959096), wk =   0.0039062
        k(  132) = (   0.2481547   0.1410226   0.2858253), wk =   0.0039062
        k(  133) = (   0.2327440   0.1291905  -0.3435850), wk =   0.0039062
        k(  134) = (   0.2349455   0.1308808  -0.2536692), wk =   0.0039062
        k(  135) = (   0.2371471   0.1325711  -0.1637535), wk =   0.0039062
        k(  136) = (   0.2393486   0.1342614  -0.0738377), wk =   0.0039062
        k(  137) = (   0.2315998   0.2778540   0.0174096), wk =   0.0039062
        k(  138) = (   0.2338013   0.2795443   0.1073254), wk =   0.0039062
        k(  139) = (   0.2360029   0.2812346   0.1972411), wk =   0.0039062
        k(  140) = (   0.2382044   0.2829249   0.2871569), wk =   0.0039062
        k(  141) = (   0.2227937   0.2710928  -0.3422534), wk =   0.0039062
        k(  142) = (   0.2249953   0.2727831  -0.2523376), wk =   0.0039062
        k(  143) = (   0.2271968   0.2744734  -0.1624219), wk =   0.0039062
        k(  144) = (   0.2293983   0.2761637  -0.0725061), wk =   0.0039062
        k(  145) = (   0.2216495   0.4197563   0.0187412), wk =   0.0039062
        k(  146) = (   0.2238510   0.4214466   0.1086569), wk =   0.0039062
        k(  147) = (   0.2260526   0.4231369   0.1985727), wk =   0.0039062
        k(  148) = (   0.2282541   0.4248272   0.2884884), wk =   0.0039062
        k(  149) = (   0.2128434   0.4129951  -0.3409218), wk =   0.0039062
        k(  150) = (   0.2150450   0.4146854  -0.2510061), wk =   0.0039062
        k(  151) = (   0.2172465   0.4163757  -0.1610903), wk =   0.0039062
        k(  152) = (   0.2194480   0.4180660  -0.0711746), wk =   0.0039062
        k(  153) = (   0.2116992   0.5616586   0.0200728), wk =   0.0039062
        k(  154) = (   0.2139007   0.5633489   0.1099885), wk =   0.0039062
        k(  155) = (   0.2161023   0.5650392   0.1999043), wk =   0.0039062
        k(  156) = (   0.2183038   0.5667295   0.2898200), wk =   0.0039062
        k(  157) = (   0.2028932   0.5548974  -0.3395903), wk =   0.0039062
        k(  158) = (   0.2050947   0.5565877  -0.2496745), wk =   0.0039062
        k(  159) = (   0.2072962   0.5582780  -0.1597588), wk =   0.0039062
        k(  160) = (   0.2094977   0.5599683  -0.0698430), wk =   0.0039062
        k(  161) = (   0.2813513  -0.4316575   0.0107518), wk =   0.0039062
        k(  162) = (   0.2835528  -0.4299672   0.1006675), wk =   0.0039062
        k(  163) = (   0.2857543  -0.4282769   0.1905833), wk =   0.0039062
        k(  164) = (   0.2879558  -0.4265866   0.2804990), wk =   0.0039062
        k(  165) = (   0.2725452  -0.4384187  -0.3489112), wk =   0.0039062
        k(  166) = (   0.2747467  -0.4367284  -0.2589955), wk =   0.0039062
        k(  167) = (   0.2769482  -0.4350381  -0.1690797), wk =   0.0039062
        k(  168) = (   0.2791498  -0.4333478  -0.0791640), wk =   0.0039062
        k(  169) = (   0.2714010  -0.2897552   0.0120833), wk =   0.0039062
        k(  170) = (   0.2736025  -0.2880649   0.1019991), wk =   0.0039062
        k(  171) = (   0.2758040  -0.2863746   0.1919148), wk =   0.0039062
        k(  172) = (   0.2780055  -0.2846843   0.2818306), wk =   0.0039062
        k(  173) = (   0.2625949  -0.2965164  -0.3475797), wk =   0.0039062
        k(  174) = (   0.2647964  -0.2948261  -0.2576639), wk =   0.0039062
        k(  175) = (   0.2669979  -0.2931358  -0.1677482), wk =   0.0039062
        k(  176) = (   0.2691995  -0.2914455  -0.0778324), wk =   0.0039062
        k(  177) = (   0.2614507  -0.1478529   0.0134149), wk =   0.0039062
        k(  178) = (   0.2636522  -0.1461626   0.1033307), wk =   0.0039062
        k(  179) = (   0.2658537  -0.1444723   0.1932464), wk =   0.0039062
        k(  180) = (   0.2680552  -0.1427820   0.2831622), wk =   0.0039062
        k(  181) = (   0.2526446  -0.1546141  -0.3462481), wk =   0.0039062
        k(  182) = (   0.2548461  -0.1529238  -0.2563324), wk =   0.0039062
        k(  183) = (   0.2570476  -0.1512335  -0.1664166), wk =   0.0039062
        k(  184) = (   0.2592492  -0.1495432  -0.0765008), wk =   0.0039062
        k(  185) = (   0.2515004  -0.0059506   0.0147465), wk =   0.0039062
        k(  186) = (   0.2537019  -0.0042603   0.1046622), wk =   0.0039062
        k(  187) = (   0.2559034  -0.0025700   0.1945780), wk =   0.0039062
        k(  188) = (   0.2581050  -0.0008797   0.2844937), wk =   0.0039062
        k(  189) = (   0.2426943  -0.0127118  -0.3449165), wk =   0.0039062
        k(  190) = (   0.2448958  -0.0110215  -0.2550008), wk =   0.0039062
        k(  191) = (   0.2470974  -0.0093312  -0.1650850), wk =   0.0039062
        k(  192) = (   0.2492989  -0.0076409  -0.0751693), wk =   0.0039062
        k(  193) = (   0.3623252   0.2039276   0.0241171), wk =   0.0039062
        k(  194) = (   0.3645267   0.2056179   0.1140328), wk =   0.0039062
        k(  195) = (   0.3667282   0.2073082   0.2039486), wk =   0.0039062
        k(  196) = (   0.3689297   0.2089985   0.2938643), wk =   0.0039062
        k(  197) = (   0.3535191   0.1971664  -0.3355459), wk =   0.0039062
        k(  198) = (   0.3557206   0.1988567  -0.2456302), wk =   0.0039062
        k(  199) = (   0.3579221   0.2005470  -0.1557144), wk =   0.0039062
        k(  200) = (   0.3601236   0.2022373  -0.0657987), wk =   0.0039062
        k(  201) = (   0.3523749   0.3458299   0.0254486), wk =   0.0039062
        k(  202) = (   0.3545764   0.3475202   0.1153644), wk =   0.0039062
        k(  203) = (   0.3567779   0.3492105   0.2052801), wk =   0.0039062
        k(  204) = (   0.3589794   0.3509008   0.2951959), wk =   0.0039062
        k(  205) = (   0.3435688   0.3390686  -0.3342144), wk =   0.0039062
        k(  206) = (   0.3457703   0.3407589  -0.2442986), wk =   0.0039062
        k(  207) = (   0.3479718   0.3424492  -0.1543829), wk =   0.0039062
        k(  208) = (   0.3501733   0.3441396  -0.0644671), wk =   0.0039062
        k(  209) = (   0.3424246   0.4877321   0.0267802), wk =   0.0039062
        k(  210) = (   0.3446261   0.4894224   0.1166960), wk =   0.0039062
        k(  211) = (   0.3468276   0.4911127   0.2066117), wk =   0.0039062
        k(  212) = (   0.3490291   0.4928031   0.2965275), wk =   0.0039062
        k(  213) = (   0.3336185   0.4809709  -0.3328828), wk =   0.0039062
        k(  214) = (   0.3358200   0.4826612  -0.2429671), wk =   0.0039062
        k(  215) = (   0.3380215   0.4843515  -0.1530513), wk =   0.0039062
        k(  216) = (   0.3402231   0.4860418  -0.0631355), wk =   0.0039062
        k(  217) = (   0.3324743   0.6296344   0.0281118), wk =   0.0039062
        k(  218) = (   0.3346758   0.6313247   0.1180275), wk =   0.0039062
        k(  219) = (   0.3368773   0.6330150   0.2079433), wk =   0.0039062
        k(  220) = (   0.3390788   0.6347053   0.2978590), wk =   0.0039062
        k(  221) = (   0.3236682   0.6228732  -0.3315512), wk =   0.0039062
        k(  222) = (   0.3258697   0.6245635  -0.2416355), wk =   0.0039062
        k(  223) = (   0.3280712   0.6262538  -0.1517197), wk =   0.0039062
        k(  224) = (   0.3302728   0.6279441  -0.0618040), wk =   0.0039062
        k(  225) = (   0.4021263  -0.3636816   0.0187908), wk =   0.0039062
        k(  226) = (   0.4043278  -0.3619913   0.1087065), wk =   0.0039062
        k(  227) = (   0.4065294  -0.3603010   0.1986223), wk =   0.0039062
        k(  228) = (   0.4087309  -0.3586107   0.2885381), wk =   0.0039062
        k(  229) = (   0.3933202  -0.3704428  -0.3408722), wk =   0.0039062
        k(  230) = (   0.3955218  -0.3687525  -0.2509565), wk =   0.0039062
        k(  231) = (   0.3977233  -0.3670622  -0.1610407), wk =   0.0039062
        k(  232) = (   0.3999248  -0.3653719  -0.0711250), wk =   0.0039062
        k(  233) = (   0.3921760  -0.2217793   0.0201224), wk =   0.0039062
        k(  234) = (   0.3943776  -0.2200890   0.1100381), wk =   0.0039062
        k(  235) = (   0.3965791  -0.2183987   0.1999539), wk =   0.0039062
        k(  236) = (   0.3987806  -0.2167084   0.2898696), wk =   0.0039062
        k(  237) = (   0.3833700  -0.2285405  -0.3395407), wk =   0.0039062
        k(  238) = (   0.3855715  -0.2268502  -0.2496249), wk =   0.0039062
        k(  239) = (   0.3877730  -0.2251599  -0.1597091), wk =   0.0039062
        k(  240) = (   0.3899745  -0.2234696  -0.0697934), wk =   0.0039062
        k(  241) = (   0.3822257  -0.0798770   0.0214539), wk =   0.0039062
        k(  242) = (   0.3844273  -0.0781867   0.1113697), wk =   0.0039062
        k(  243) = (   0.3866288  -0.0764964   0.2012854), wk =   0.0039062
        k(  244) = (   0.3888303  -0.0748061   0.2912012), wk =   0.0039062
        k(  245) = (   0.3734197  -0.0866382  -0.3382091), wk =   0.0039062
        k(  246) = (   0.3756212  -0.0849479  -0.2482933), wk =   0.0039062
        k(  247) = (   0.3778227  -0.0832576  -0.1583776), wk =   0.0039062
        k(  248) = (   0.3800242  -0.0815673  -0.0684618), wk =   0.0039062
        k(  249) = (   0.3722754   0.0620253   0.0227855), wk =   0.0039062
        k(  250) = (   0.3744770   0.0637156   0.1127013), wk =   0.0039062
        k(  251) = (   0.3766785   0.0654059   0.2026170), wk =   0.0039062
        k(  252) = (   0.3788800   0.0670962   0.2925328), wk =   0.0039062
        k(  253) = (   0.3634694   0.0552641  -0.3368775), wk =   0.0039062
        k(  254) = (   0.3656709   0.0569544  -0.2469618), wk =   0.0039062
        k(  255) = (   0.3678724   0.0586447  -0.1570460), wk =   0.0039062
        k(  256) = (   0.3700739   0.0603350  -0.0671303), wk =   0.0039062
        k(  257) = (  -0.4831002  -0.2719034  -0.0321561), wk =   0.0039062
        k(  258) = (  -0.4808987  -0.2702131   0.0577597), wk =   0.0039062
        k(  259) = (  -0.4786972  -0.2685228   0.1476754), wk =   0.0039062
        k(  260) = (  -0.4764957  -0.2668325   0.2375912), wk =   0.0039062
        k(  261) = (  -0.4919063  -0.2786646  -0.3918191), wk =   0.0039062
        k(  262) = (  -0.4897048  -0.2769743  -0.3019034), wk =   0.0039062
        k(  263) = (  -0.4875032  -0.2752840  -0.2119876), wk =   0.0039062
        k(  264) = (  -0.4853017  -0.2735937  -0.1220718), wk =   0.0039062
        k(  265) = (  -0.4930505  -0.1300011  -0.0308245), wk =   0.0039062
        k(  266) = (  -0.4908490  -0.1283108   0.0590912), wk =   0.0039062
        k(  267) = (  -0.4886475  -0.1266205   0.1490070), wk =   0.0039062
        k(  268) = (  -0.4864459  -0.1249302   0.2389227), wk =   0.0039062
        k(  269) = (  -0.5018566  -0.1367623  -0.3904875), wk =   0.0039062
        k(  270) = (  -0.4996551  -0.1350720  -0.3005718), wk =   0.0039062
        k(  271) = (  -0.4974535  -0.1333817  -0.2106560), wk =   0.0039062
        k(  272) = (  -0.4952520  -0.1316914  -0.1207403), wk =   0.0039062
        k(  273) = (  -0.5030008   0.0119012  -0.0294930), wk =   0.0039062
        k(  274) = (  -0.5007993   0.0135915   0.0604228), wk =   0.0039062
        k(  275) = (  -0.4985978   0.0152818   0.1503386), wk =   0.0039062
        k(  276) = (  -0.4963962   0.0169721   0.2402543), wk =   0.0039062
        k(  277) = (  -0.5118069   0.0051400  -0.3891560), wk =   0.0039062
        k(  278) = (  -0.5096053   0.0068303  -0.2992402), wk =   0.0039062
        k(  279) = (  -0.5074038   0.0085206  -0.2093245), wk =   0.0039062
        k(  280) = (  -0.5052023   0.0102109  -0.1194087), wk =   0.0039062
        k(  281) = (  -0.5129511   0.1538035  -0.0281614), wk =   0.0039062
        k(  282) = (  -0.5107496   0.1554938   0.0617544), wk =   0.0039062
        k(  283) = (  -0.5085480   0.1571841   0.1516701), wk =   0.0039062
        k(  284) = (  -0.5063465   0.1588744   0.2415859), wk =   0.0039062
        k(  285) = (  -0.5217572   0.1470423  -0.3878244), wk =   0.0039062
        k(  286) = (  -0.5195556   0.1487326  -0.2979086), wk =   0.0039062
        k(  287) = (  -0.5173541   0.1504229  -0.2079929), wk =   0.0039062
        k(  288) = (  -0.5151526   0.1521132  -0.1180771), wk =   0.0039062
        k(  289) = (  -0.4432990  -0.8395126  -0.0374824), wk =   0.0039062
        k(  290) = (  -0.4410975  -0.8378223   0.0524334), wk =   0.0039062
        k(  291) = (  -0.4388960  -0.8361320   0.1423491), wk =   0.0039062
        k(  292) = (  -0.4366945  -0.8344417   0.2322649), wk =   0.0039062
        k(  293) = (  -0.4521051  -0.8462738  -0.3971454), wk =   0.0039062
        k(  294) = (  -0.4499036  -0.8445835  -0.3072296), wk =   0.0039062
        k(  295) = (  -0.4477021  -0.8428932  -0.2173139), wk =   0.0039062
        k(  296) = (  -0.4455006  -0.8412029  -0.1273981), wk =   0.0039062
        k(  297) = (  -0.4532493  -0.6976103  -0.0361508), wk =   0.0039062
        k(  298) = (  -0.4510478  -0.6959200   0.0537650), wk =   0.0039062
        k(  299) = (  -0.4488463  -0.6942297   0.1436807), wk =   0.0039062
        k(  300) = (  -0.4466448  -0.6925394   0.2335965), wk =   0.0039062
        k(  301) = (  -0.4620554  -0.7043715  -0.3958138), wk =   0.0039062
        k(  302) = (  -0.4598539  -0.7026812  -0.3058981), wk =   0.0039062
        k(  303) = (  -0.4576524  -0.7009909  -0.2159823), wk =   0.0039062
        k(  304) = (  -0.4554509  -0.6993006  -0.1260665), wk =   0.0039062
        k(  305) = (  -0.4631996  -0.5557080  -0.0348192), wk =   0.0039062
        k(  306) = (  -0.4609981  -0.5540177   0.0550965), wk =   0.0039062
        k(  307) = (  -0.4587966  -0.5523274   0.1450123), wk =   0.0039062
        k(  308) = (  -0.4565951  -0.5506371   0.2349280), wk =   0.0039062
        k(  309) = (  -0.4720057  -0.5624692  -0.3944822), wk =   0.0039062
        k(  310) = (  -0.4698042  -0.5607789  -0.3045665), wk =   0.0039062
        k(  311) = (  -0.4676027  -0.5590886  -0.2146507), wk =   0.0039062
        k(  312) = (  -0.4654011  -0.5573983  -0.1247350), wk =   0.0039062
        k(  313) = (  -0.4731499  -0.4138057  -0.0334877), wk =   0.0039062
        k(  314) = (  -0.4709484  -0.4121154   0.0564281), wk =   0.0039062
        k(  315) = (  -0.4687469  -0.4104251   0.1463438), wk =   0.0039062
        k(  316) = (  -0.4665454  -0.4087348   0.2362596), wk =   0.0039062
        k(  317) = (  -0.4819560  -0.4205669  -0.3931507), wk =   0.0039062
        k(  318) = (  -0.4797545  -0.4188766  -0.3032349), wk =   0.0039062
        k(  319) = (  -0.4775530  -0.4171863  -0.2133192), wk =   0.0039062
        k(  320) = (  -0.4753514  -0.4154960  -0.1234034), wk =   0.0039062
        k(  321) = (  -0.3623252  -0.2039276  -0.0241171), wk =   0.0039062
        k(  322) = (  -0.3601236  -0.2022373   0.0657987), wk =   0.0039062
        k(  323) = (  -0.3579221  -0.2005470   0.1557144), wk =   0.0039062
        k(  324) = (  -0.3557206  -0.1988567   0.2456302), wk =   0.0039062
        k(  325) = (  -0.3711312  -0.2106888  -0.3837801), wk =   0.0039062
        k(  326) = (  -0.3689297  -0.2089985  -0.2938643), wk =   0.0039062
        k(  327) = (  -0.3667282  -0.2073082  -0.2039486), wk =   0.0039062
        k(  328) = (  -0.3645267  -0.2056179  -0.1140328), wk =   0.0039062
        k(  329) = (  -0.3722754  -0.0620253  -0.0227855), wk =   0.0039062
        k(  330) = (  -0.3700739  -0.0603350   0.0671303), wk =   0.0039062
        k(  331) = (  -0.3678724  -0.0586447   0.1570460), wk =   0.0039062
        k(  332) = (  -0.3656709  -0.0569544   0.2469618), wk =   0.0039062
        k(  333) = (  -0.3810815  -0.0687865  -0.3824485), wk =   0.0039062
        k(  334) = (  -0.3788800  -0.0670962  -0.2925328), wk =   0.0039062
        k(  335) = (  -0.3766785  -0.0654059  -0.2026170), wk =   0.0039062
        k(  336) = (  -0.3744770  -0.0637156  -0.1127013), wk =   0.0039062
        k(  337) = (  -0.3822257   0.0798770  -0.0214539), wk =   0.0039062
        k(  338) = (  -0.3800242   0.0815673   0.0684618), wk =   0.0039062
        k(  339) = (  -0.3778227   0.0832576   0.1583776), wk =   0.0039062
        k(  340) = (  -0.3756212   0.0849479   0.2482933), wk =   0.0039062
        k(  341) = (  -0.3910318   0.0731158  -0.3811169), wk =   0.0039062
        k(  342) = (  -0.3888303   0.0748061  -0.2912012), wk =   0.0039062
        k(  343) = (  -0.3866288   0.0764964  -0.2012854), wk =   0.0039062
        k(  344) = (  -0.3844273   0.0781867  -0.1113697), wk =   0.0039062
        k(  345) = (  -0.3921760   0.2217793  -0.0201224), wk =   0.0039062
        k(  346) = (  -0.3899745   0.2234696   0.0697934), wk =   0.0039062
        k(  347) = (  -0.3877730   0.2251599   0.1597091), wk =   0.0039062
        k(  348) = (  -0.3855715   0.2268502   0.2496249), wk =   0.0039062
        k(  349) = (  -0.4009821   0.2150181  -0.3797854), wk =   0.0039062
        k(  350) = (  -0.3987806   0.2167084  -0.2898696), wk =   0.0039062
        k(  351) = (  -0.3965791   0.2183987  -0.1999539), wk =   0.0039062
        k(  352) = (  -0.3943776   0.2200890  -0.1100381), wk =   0.0039062
        k(  353) = (  -0.3225240  -0.7715367  -0.0294433), wk =   0.0039062
        k(  354) = (  -0.3203225  -0.7698464   0.0604724), wk =   0.0039062
        k(  355) = (  -0.3181210  -0.7681561   0.1503882), wk =   0.0039062
        k(  356) = (  -0.3159194  -0.7664658   0.2403039), wk =   0.0039062
        k(  357) = (  -0.3313301  -0.7782979  -0.3891064), wk =   0.0039062
        k(  358) = (  -0.3291285  -0.7766076  -0.2991906), wk =   0.0039062
        k(  359) = (  -0.3269270  -0.7749173  -0.2092748), wk =   0.0039062
        k(  360) = (  -0.3247255  -0.7732270  -0.1193591), wk =   0.0039062
        k(  361) = (  -0.3324743  -0.6296344  -0.0281118), wk =   0.0039062
        k(  362) = (  -0.3302728  -0.6279441   0.0618040), wk =   0.0039062
        k(  363) = (  -0.3280712  -0.6262538   0.1517197), wk =   0.0039062
        k(  364) = (  -0.3258697  -0.6245635   0.2416355), wk =   0.0039062
        k(  365) = (  -0.3412804  -0.6363956  -0.3877748), wk =   0.0039062
        k(  366) = (  -0.3390788  -0.6347053  -0.2978590), wk =   0.0039062
        k(  367) = (  -0.3368773  -0.6330150  -0.2079433), wk =   0.0039062
        k(  368) = (  -0.3346758  -0.6313247  -0.1180275), wk =   0.0039062
        k(  369) = (  -0.3424246  -0.4877321  -0.0267802), wk =   0.0039062
        k(  370) = (  -0.3402231  -0.4860418   0.0631355), wk =   0.0039062
        k(  371) = (  -0.3380215  -0.4843515   0.1530513), wk =   0.0039062
        k(  372) = (  -0.3358200  -0.4826612   0.2429671), wk =   0.0039062
        k(  373) = (  -0.3512307  -0.4944934  -0.3864432), wk =   0.0039062
        k(  374) = (  -0.3490291  -0.4928031  -0.2965275), wk =   0.0039062
        k(  375) = (  -0.3468276  -0.4911127  -0.2066117), wk =   0.0039062
        k(  376) = (  -0.3446261  -0.4894224  -0.1166960), wk =   0.0039062
        k(  377) = (  -0.3523749  -0.3458299  -0.0254486), wk =   0.0039062
        k(  378) = (  -0.3501733  -0.3441396   0.0644671), wk =   0.0039062
        k(  379) = (  -0.3479718  -0.3424492   0.1543829), wk =   0.0039062
        k(  380) = (  -0.3457703  -0.3407589   0.2442986), wk =   0.0039062
        k(  381) = (  -0.3611809  -0.3525911  -0.3851117), wk =   0.0039062
        k(  382) = (  -0.3589794  -0.3509008  -0.2951959), wk =   0.0039062
        k(  383) = (  -0.3567779  -0.3492105  -0.2052801), wk =   0.0039062
        k(  384) = (  -0.3545764  -0.3475202  -0.1153644), wk =   0.0039062
        k(  385) = (  -0.2415501  -0.1359517  -0.0160780), wk =   0.0039062
        k(  386) = (  -0.2393486  -0.1342614   0.0738377), wk =   0.0039062
        k(  387) = (  -0.2371471  -0.1325711   0.1637535), wk =   0.0039062
        k(  388) = (  -0.2349455  -0.1308808   0.2536692), wk =   0.0039062
        k(  389) = (  -0.2503562  -0.1427129  -0.3757411), wk =   0.0039062
        k(  390) = (  -0.2481547  -0.1410226  -0.2858253), wk =   0.0039062
        k(  391) = (  -0.2459531  -0.1393323  -0.1959096), wk =   0.0039062
        k(  392) = (  -0.2437516  -0.1376420  -0.1059938), wk =   0.0039062
        k(  393) = (  -0.2515004   0.0059506  -0.0147465), wk =   0.0039062
        k(  394) = (  -0.2492989   0.0076409   0.0751693), wk =   0.0039062
        k(  395) = (  -0.2470974   0.0093312   0.1650850), wk =   0.0039062
        k(  396) = (  -0.2448958   0.0110215   0.2550008), wk =   0.0039062
        k(  397) = (  -0.2603065  -0.0008106  -0.3744095), wk =   0.0039062
        k(  398) = (  -0.2581050   0.0008797  -0.2844937), wk =   0.0039062
        k(  399) = (  -0.2559034   0.0025700  -0.1945780), wk =   0.0039062
        k(  400) = (  -0.2537019   0.0042603  -0.1046622), wk =   0.0039062
        k(  401) = (  -0.2614507   0.1478529  -0.0134149), wk =   0.0039062
        k(  402) = (  -0.2592492   0.1495432   0.0765008), wk =   0.0039062
        k(  403) = (  -0.2570476   0.1512335   0.1664166), wk =   0.0039062
        k(  404) = (  -0.2548461   0.1529238   0.2563324), wk =   0.0039062
        k(  405) = (  -0.2702568   0.1410917  -0.3730779), wk =   0.0039062
        k(  406) = (  -0.2680552   0.1427820  -0.2831622), wk =   0.0039062
        k(  407) = (  -0.2658537   0.1444723  -0.1932464), wk =   0.0039062
        k(  408) = (  -0.2636522   0.1461626  -0.1033307), wk =   0.0039062
        k(  409) = (  -0.2714010   0.2897552  -0.0120833), wk =   0.0039062
        k(  410) = (  -0.2691995   0.2914455   0.0778324), wk =   0.0039062
        k(  411) = (  -0.2669979   0.2931358   0.1677482), wk =   0.0039062
        k(  412) = (  -0.2647964   0.2948261   0.2576639), wk =   0.0039062
        k(  413) = (  -0.2802071   0.2829940  -0.3717464), wk =   0.0039062
        k(  414) = (  -0.2780055   0.2846843  -0.2818306), wk =   0.0039062
        k(  415) = (  -0.2758040   0.2863746  -0.1919148), wk =   0.0039062
        k(  416) = (  -0.2736025   0.2880649  -0.1019991), wk =   0.0039062
        k(  417) = (  -0.2017489  -0.7035609  -0.0214043), wk =   0.0039062
        k(  418) = (  -0.1995474  -0.7018706   0.0685114), wk =   0.0039062
        k(  419) = (  -0.1973459  -0.7001803   0.1584272), wk =   0.0039062
        k(  420) = (  -0.1951444  -0.6984900   0.2483429), wk =   0.0039062
        k(  421) = (  -0.2105550  -0.7103221  -0.3810673), wk =   0.0039062
        k(  422) = (  -0.2083535  -0.7086318  -0.2911516), wk =   0.0039062
        k(  423) = (  -0.2061520  -0.7069415  -0.2012358), wk =   0.0039062
        k(  424) = (  -0.2039505  -0.7052512  -0.1113201), wk =   0.0039062
        k(  425) = (  -0.2116992  -0.5616586  -0.0200728), wk =   0.0039062
        k(  426) = (  -0.2094977  -0.5599683   0.0698430), wk =   0.0039062
        k(  427) = (  -0.2072962  -0.5582780   0.1597588), wk =   0.0039062
        k(  428) = (  -0.2050947  -0.5565877   0.2496745), wk =   0.0039062
        k(  429) = (  -0.2205053  -0.5684198  -0.3797358), wk =   0.0039062
        k(  430) = (  -0.2183038  -0.5667295  -0.2898200), wk =   0.0039062
        k(  431) = (  -0.2161023  -0.5650392  -0.1999043), wk =   0.0039062
        k(  432) = (  -0.2139007  -0.5633489  -0.1099885), wk =   0.0039062
        k(  433) = (  -0.2216495  -0.4197563  -0.0187412), wk =   0.0039062
        k(  434) = (  -0.2194480  -0.4180660   0.0711746), wk =   0.0039062
        k(  435) = (  -0.2172465  -0.4163757   0.1610903), wk =   0.0039062
        k(  436) = (  -0.2150450  -0.4146854   0.2510061), wk =   0.0039062
        k(  437) = (  -0.2304556  -0.4265175  -0.3784042), wk =   0.0039062
        k(  438) = (  -0.2282541  -0.4248272  -0.2884884), wk =   0.0039062
        k(  439) = (  -0.2260526  -0.4231369  -0.1985727), wk =   0.0039062
        k(  440) = (  -0.2238510  -0.4214466  -0.1086569), wk =   0.0039062
        k(  441) = (  -0.2315998  -0.2778540  -0.0174096), wk =   0.0039062
        k(  442) = (  -0.2293983  -0.2761637   0.0725061), wk =   0.0039062
        k(  443) = (  -0.2271968  -0.2744734   0.1624219), wk =   0.0039062
        k(  444) = (  -0.2249953  -0.2727831   0.2523376), wk =   0.0039062
        k(  445) = (  -0.2404059  -0.2846152  -0.3770726), wk =   0.0039062
        k(  446) = (  -0.2382044  -0.2829249  -0.2871569), wk =   0.0039062
        k(  447) = (  -0.2360029  -0.2812346  -0.1972411), wk =   0.0039062
        k(  448) = (  -0.2338013  -0.2795443  -0.1073254), wk =   0.0039062
        k(  449) = (  -0.1207751  -0.0679759  -0.0080390), wk =   0.0039062
        k(  450) = (  -0.1185735  -0.0662856   0.0818767), wk =   0.0039062
        k(  451) = (  -0.1163720  -0.0645952   0.1717925), wk =   0.0039062
        k(  452) = (  -0.1141705  -0.0629049   0.2617082), wk =   0.0039062
        k(  453) = (  -0.1295811  -0.0747371  -0.3677020), wk =   0.0039062
        k(  454) = (  -0.1273796  -0.0730468  -0.2777863), wk =   0.0039062
        k(  455) = (  -0.1251781  -0.0713565  -0.1878705), wk =   0.0039062
        k(  456) = (  -0.1229766  -0.0696662  -0.0979548), wk =   0.0039062
        k(  457) = (  -0.1307253   0.0739264  -0.0067075), wk =   0.0039062
        k(  458) = (  -0.1285238   0.0756167   0.0832083), wk =   0.0039062
        k(  459) = (  -0.1263223   0.0773070   0.1731241), wk =   0.0039062
        k(  460) = (  -0.1241208   0.0789973   0.2630398), wk =   0.0039062
        k(  461) = (  -0.1395314   0.0671652  -0.3663705), wk =   0.0039062
        k(  462) = (  -0.1373299   0.0688555  -0.2764547), wk =   0.0039062
        k(  463) = (  -0.1351284   0.0705458  -0.1865390), wk =   0.0039062
        k(  464) = (  -0.1329269   0.0722361  -0.0966232), wk =   0.0039062
        k(  465) = (  -0.1406756   0.2158287  -0.0053759), wk =   0.0039062
        k(  466) = (  -0.1384741   0.2175190   0.0845399), wk =   0.0039062
        k(  467) = (  -0.1362726   0.2192093   0.1744556), wk =   0.0039062
        k(  468) = (  -0.1340711   0.2208996   0.2643714), wk =   0.0039062
        k(  469) = (  -0.1494817   0.2090675  -0.3650389), wk =   0.0039062
        k(  470) = (  -0.1472802   0.2107578  -0.2751231), wk =   0.0039062
        k(  471) = (  -0.1450787   0.2124481  -0.1852074), wk =   0.0039062
        k(  472) = (  -0.1428772   0.2141384  -0.0952916), wk =   0.0039062
        k(  473) = (  -0.1506259   0.3577310  -0.0040443), wk =   0.0039062
        k(  474) = (  -0.1484244   0.3594213   0.0858714), wk =   0.0039062
        k(  475) = (  -0.1462229   0.3611116   0.1757872), wk =   0.0039062
        k(  476) = (  -0.1440214   0.3628019   0.2657029), wk =   0.0039062
        k(  477) = (  -0.1594320   0.3509698  -0.3637073), wk =   0.0039062
        k(  478) = (  -0.1572305   0.3526601  -0.2737916), wk =   0.0039062
        k(  479) = (  -0.1550290   0.3543504  -0.1838758), wk =   0.0039062
        k(  480) = (  -0.1528274   0.3560407  -0.0939601), wk =   0.0039062
        k(  481) = (  -0.0809739  -0.6355850  -0.0133653), wk =   0.0039062
        k(  482) = (  -0.0787724  -0.6338947   0.0765505), wk =   0.0039062
        k(  483) = (  -0.0765708  -0.6322044   0.1664662), wk =   0.0039062
        k(  484) = (  -0.0743693  -0.6305141   0.2563820), wk =   0.0039062
        k(  485) = (  -0.0897800  -0.6423462  -0.3730283), wk =   0.0039062
        k(  486) = (  -0.0875784  -0.6406559  -0.2831126), wk =   0.0039062
        k(  487) = (  -0.0853769  -0.6389656  -0.1931968), wk =   0.0039062
        k(  488) = (  -0.0831754  -0.6372753  -0.1032811), wk =   0.0039062
        k(  489) = (  -0.0909242  -0.4936827  -0.0120337), wk =   0.0039062
        k(  490) = (  -0.0887227  -0.4919924   0.0778820), wk =   0.0039062
        k(  491) = (  -0.0865211  -0.4903021   0.1677978), wk =   0.0039062
        k(  492) = (  -0.0843196  -0.4886118   0.2577135), wk =   0.0039062
        k(  493) = (  -0.0997303  -0.5004439  -0.3716967), wk =   0.0039062
        k(  494) = (  -0.0975287  -0.4987536  -0.2817810), wk =   0.0039062
        k(  495) = (  -0.0953272  -0.4970633  -0.1918652), wk =   0.0039062
        k(  496) = (  -0.0931257  -0.4953730  -0.1019495), wk =   0.0039062
        k(  497) = (  -0.1008745  -0.3517804  -0.0107022), wk =   0.0039062
        k(  498) = (  -0.0986730  -0.3500901   0.0792136), wk =   0.0039062
        k(  499) = (  -0.0964714  -0.3483998   0.1691293), wk =   0.0039062
        k(  500) = (  -0.0942699  -0.3467095   0.2590451), wk =   0.0039062
        k(  501) = (  -0.1096805  -0.3585416  -0.3703652), wk =   0.0039062
        k(  502) = (  -0.1074790  -0.3568513  -0.2804494), wk =   0.0039062
        k(  503) = (  -0.1052775  -0.3551610  -0.1905337), wk =   0.0039062
        k(  504) = (  -0.1030760  -0.3534707  -0.1006179), wk =   0.0039062
        k(  505) = (  -0.1108248  -0.2098781  -0.0093706), wk =   0.0039062
        k(  506) = (  -0.1086232  -0.2081878   0.0805452), wk =   0.0039062
        k(  507) = (  -0.1064217  -0.2064975   0.1704609), wk =   0.0039062
        k(  508) = (  -0.1042202  -0.2048072   0.2603767), wk =   0.0039062
        k(  509) = (  -0.1196308  -0.2166394  -0.3690336), wk =   0.0039062
        k(  510) = (  -0.1174293  -0.2149491  -0.2791179), wk =   0.0039062
        k(  511) = (  -0.1152278  -0.2132588  -0.1892021), wk =   0.0039062
        k(  512) = (  -0.1130263  -0.2115684  -0.0992863), wk =   0.0039062

                       cryst. coord.
        k(    1) = (   0.0000000   0.0000000   0.0000000), wk =   0.0039062
        k(    2) = (   0.0000000   0.0000000   0.1250000), wk =   0.0039062
        k(    3) = (   0.0000000   0.0000000   0.2500000), wk =   0.0039062
        k(    4) = (   0.0000000   0.0000000   0.3750000), wk =   0.0039062
        k(    5) = (   0.0000000  -0.0000000  -0.5000000), wk =   0.0039062
        k(    6) = (  -0.0000000  -0.0000000  -0.3750000), wk =   0.0039062
        k(    7) = (   0.0000000  -0.0000000  -0.2500000), wk =   0.0039062
        k(    8) = (   0.0000000  -0.0000000  -0.1250000), wk =   0.0039062
        k(    9) = (   0.0000000   0.1250000   0.0000000), wk =   0.0039062
        k(   10) = (   0.0000000   0.1250000   0.1250000), wk =   0.0039062
        k(   11) = (   0.0000000   0.1250000   0.2500000), wk =   0.0039062
        k(   12) = (   0.0000000   0.1250000   0.3750000), wk =   0.0039062
        k(   13) = (   0.0000000   0.1250000  -0.5000000), wk =   0.0039062
        k(   14) = (  -0.0000000   0.1250000  -0.3750000), wk =   0.0039062
        k(   15) = (   0.0000000   0.1250000  -0.2500000), wk =   0.0039062
        k(   16) = (  -0.0000000   0.1250000  -0.1250000), wk =   0.0039062
        k(   17) = (   0.0000000   0.2500000   0.0000000), wk =   0.0039062
        k(   18) = (  -0.0000000   0.2500000   0.1250000), wk =   0.0039062
        k(   19) = (   0.0000000   0.2500000   0.2500000), wk =   0.0039062
        k(   20) = (   0.0000000   0.2500000   0.3750000), wk =   0.0039062
        k(   21) = (   0.0000000   0.2500000  -0.5000000), wk =   0.0039062
        k(   22) = (   0.0000000   0.2500000  -0.3750000), wk =   0.0039062
        k(   23) = (  -0.0000000   0.2500000  -0.2500000), wk =   0.0039062
        k(   24) = (   0.0000000   0.2500000  -0.1250000), wk =   0.0039062
        k(   25) = (   0.0000000   0.3750000   0.0000000), wk =   0.0039062
        k(   26) = (   0.0000000   0.3750000   0.1250000), wk =   0.0039062
        k(   27) = (   0.0000000   0.3750000   0.2500000), wk =   0.0039062
        k(   28) = (   0.0000000   0.3750000   0.3750000), wk =   0.0039062
        k(   29) = (  -0.0000000   0.3750000  -0.5000000), wk =   0.0039062
        k(   30) = (   0.0000000   0.3750000  -0.3750000), wk =   0.0039062
        k(   31) = (  -0.0000000   0.3750000  -0.2500000), wk =   0.0039062
        k(   32) = (   0.0000000   0.3750000  -0.1250000), wk =   0.0039062
        k(   33) = (  -0.0000000  -0.5000000  -0.0000000), wk =   0.0039062
        k(   34) = (  -0.0000000  -0.5000000   0.1250000), wk =   0.0039062
        k(   35) = (  -0.0000000  -0.5000000   0.2500000), wk =   0.0039062
        k(   36) = (   0.0000000  -0.5000000   0.3750000), wk =   0.0039062
        k(   37) = (  -0.0000000  -0.5000000  -0.5000000), wk =   0.0039062
        k(   38) = (  -0.0000000  -0.5000000  -0.3750000), wk =   0.0039062
        k(   39) = (   0.0000000  -0.5000000  -0.2500000), wk =   0.0039062
        k(   40) = (   0.0000000  -0.5000000  -0.1250000), wk =   0.0039062
        k(   41) = (  -0.0000000  -0.3750000  -0.0000000), wk =   0.0039062
        k(   42) = (  -0.0000000  -0.3750000   0.1250000), wk =   0.0039062
        k(   43) = (   0.0000000  -0.3750000   0.2500000), wk =   0.0039062
        k(   44) = (   0.0000000  -0.3750000   0.3750000), wk =   0.0039062
        k(   45) = (  -0.0000000  -0.3750000  -0.5000000), wk =   0.0039062
        k(   46) = (  -0.0000000  -0.3750000  -0.3750000), wk =   0.0039062
        k(   47) = (  -0.0000000  -0.3750000  -0.2500000), wk =   0.0039062
        k(   48) = (  -0.0000000  -0.3750000  -0.1250000), wk =   0.0039062
        k(   49) = (  -0.0000000  -0.2500000  -0.0000000), wk =   0.0039062
        k(   50) = (  -0.0000000  -0.2500000   0.1250000), wk =   0.0039062
        k(   51) = (   0.0000000  -0.2500000   0.2500000), wk =   0.0039062
        k(   52) = (  -0.0000000  -0.2500000   0.3750000), wk =   0.0039062
        k(   53) = (  -0.0000000  -0.2500000  -0.5000000), wk =   0.0039062
        k(   54) = (  -0.0000000  -0.2500000  -0.3750000), wk =   0.0039062
        k(   55) = (  -0.0000000  -0.2500000  -0.2500000), wk =   0.0039062
        k(   56) = (   0.0000000  -0.2500000  -0.1250000), wk =   0.0039062
        k(   57) = (  -0.0000000  -0.1250000  -0.0000000), wk =   0.0039062
        k(   58) = (   0.0000000  -0.1250000   0.1250000), wk =   0.0039062
        k(   59) = (   0.0000000  -0.1250000   0.2500000), wk =   0.0039062
        k(   60) = (   0.0000000  -0.1250000   0.3750000), wk =   0.0039062
        k(   61) = (   0.0000000  -0.1250000  -0.5000000), wk =   0.0039062
        k(   62) = (  -0.0000000  -0.1250000  -0.3750000), wk =   0.0039062
        k(   63) = (  -0.0000000  -0.1250000  -0.2500000), wk =   0.0039062
        k(   64) = (  -0.0000000  -0.1250000  -0.1250000), wk =   0.0039062
        k(   65) = (   0.1250000  -0.0000000   0.0000000), wk =   0.0039062
        k(   66) = (   0.1250000  -0.0000000   0.1250000), wk =   0.0039062
        k(   67) = (   0.1250000  -0.0000000   0.2500000), wk =   0.0039062
        k(   68) = (   0.1250000  -0.0000000   0.3750000), wk =   0.0039062
        k(   69) = (   0.1250000  -0.0000000  -0.5000000), wk =   0.0039062
        k(   70) = (   0.1250000  -0.0000000  -0.3750000), wk =   0.0039062
        k(   71) = (   0.1250000  -0.0000000  -0.2500000), wk =   0.0039062
        k(   72) = (   0.1250000  -0.0000000  -0.1250000), wk =   0.0039062
        k(   73) = (   0.1250000   0.1250000   0.0000000), wk =   0.0039062
        k(   74) = (   0.1250000   0.1250000   0.1250000), wk =   0.0039062
        k(   75) = (   0.1250000   0.1250000   0.2500000), wk =   0.0039062
        k(   76) = (   0.1250000   0.1250000   0.3750000), wk =   0.0039062
        k(   77) = (   0.1250000   0.1250000  -0.5000000), wk =   0.0039062
        k(   78) = (   0.1250000   0.1250000  -0.3750000), wk =   0.0039062
        k(   79) = (   0.1250000   0.1250000  -0.2500000), wk =   0.0039062
        k(   80) = (   0.1250000   0.1250000  -0.1250000), wk =   0.0039062
        k(   81) = (   0.1250000   0.2500000   0.0000000), wk =   0.0039062
        k(   82) = (   0.1250000   0.2500000   0.1250000), wk =   0.0039062
        k(   83) = (   0.1250000   0.2500000   0.2500000), wk =   0.0039062
        k(   84) = (   0.1250000   0.2500000   0.3750000), wk =   0.0039062
        k(   85) = (   0.1250000   0.2500000  -0.5000000), wk =   0.0039062
        k(   86) = (   0.1250000   0.2500000  -0.3750000), wk =   0.0039062
        k(   87) = (   0.1250000   0.2500000  -0.2500000), wk =   0.0039062
        k(   88) = (   0.1250000   0.2500000  -0.1250000), wk =   0.0039062
        k(   89) = (   0.1250000   0.3750000   0.0000000), wk =   0.0039062
        k(   90) = (   0.1250000   0.3750000   0.1250000), wk =   0.0039062
        k(   91) = (   0.1250000   0.3750000   0.2500000), wk =   0.0039062
        k(   92) = (   0.1250000   0.3750000   0.3750000), wk =   0.0039062
        k(   93) = (   0.1250000   0.3750000  -0.5000000), wk =   0.0039062
        k(   94) = (   0.1250000   0.3750000  -0.3750000), wk =   0.0039062
        k(   95) = (   0.1250000   0.3750000  -0.2500000), wk =   0.0039062
        k(   96) = (   0.1250000   0.3750000  -0.1250000), wk =   0.0039062
        k(   97) = (   0.1250000  -0.5000000  -0.0000000), wk =   0.0039062
        k(   98) = (   0.1250000  -0.5000000   0.1250000), wk =   0.0039062
        k(   99) = (   0.1250000  -0.5000000   0.2500000), wk =   0.0039062
        k(  100) = (   0.1250000  -0.5000000   0.3750000), wk =   0.0039062
        k(  101) = (   0.1250000  -0.5000000  -0.5000000), wk =   0.0039062
        k(  102) = (   0.1250000  -0.5000000  -0.3750000), wk =   0.0039062
        k(  103) = (   0.1250000  -0.5000000  -0.2500000), wk =   0.0039062
        k(  104) = (   0.1250000  -0.5000000  -0.1250000), wk =   0.0039062
        k(  105) = (   0.1250000  -0.3750000   0.0000000), wk =   0.0039062
        k(  106) = (   0.1250000  -0.3750000   0.1250000), wk =   0.0039062
        k(  107) = (   0.1250000  -0.3750000   0.2500000), wk =   0.0039062
        k(  108) = (   0.1250000  -0.3750000   0.3750000), wk =   0.0039062
        k(  109) = (   0.1250000  -0.3750000  -0.5000000), wk =   0.0039062
        k(  110) = (   0.1250000  -0.3750000  -0.3750000), wk =   0.0039062
        k(  111) = (   0.1250000  -0.3750000  -0.2500000), wk =   0.0039062
        k(  112) = (   0.1250000  -0.3750000  -0.1250000), wk =   0.0039062
        k(  113) = (   0.1250000  -0.2500000  -0.0000000), wk =   0.0039062
        k(  114) = (   0.1250000  -0.2500000   0.1250000), wk =   0.0039062
        k(  115) = (   0.1250000  -0.2500000   0.2500000), wk =   0.0039062
        k(  116) = (   0.1250000  -0.2500000   0.3750000), wk =   0.0039062
        k(  117) = (   0.1250000  -0.2500000  -0.5000000), wk =   0.0039062
        k(  118) = (   0.1250000  -0.2500000  -0.3750000), wk =   0.0039062
        k(  119) = (   0.1250000  -0.2500000  -0.2500000), wk =   0.0039062
        k(  120) = (   0.1250000  -0.2500000  -0.1250000), wk =   0.0039062
        k(  121) = (   0.1250000  -0.1250000   0.0000000), wk =   0.0039062
        k(  122) = (   0.1250000  -0.1250000   0.1250000), wk =   0.0039062
        k(  123) = (   0.1250000  -0.1250000   0.2500000), wk =   0.0039062
        k(  124) = (   0.1250000  -0.1250000   0.3750000), wk =   0.0039062
        k(  125) = (   0.1250000  -0.1250000  -0.5000000), wk =   0.0039062
        k(  126) = (   0.1250000  -0.1250000  -0.3750000), wk =   0.0039062
        k(  127) = (   0.1250000  -0.1250000  -0.2500000), wk =   0.0039062
        k(  128) = (   0.1250000  -0.1250000  -0.1250000), wk =   0.0039062
        k(  129) = (   0.2500000  -0.0000000   0.0000000), wk =   0.0039062
        k(  130) = (   0.2500000  -0.0000000   0.1250000), wk =   0.0039062
        k(  131) = (   0.2500000  -0.0000000   0.2500000), wk =   0.0039062
        k(  132) = (   0.2500000  -0.0000000   0.3750000), wk =   0.0039062
        k(  133) = (   0.2500000  -0.0000000  -0.5000000), wk =   0.0039062
        k(  134) = (   0.2500000  -0.0000000  -0.3750000), wk =   0.0039062
        k(  135) = (   0.2500000  -0.0000000  -0.2500000), wk =   0.0039062
        k(  136) = (   0.2500000  -0.0000000  -0.1250000), wk =   0.0039062
        k(  137) = (   0.2500000   0.1250000   0.0000000), wk =   0.0039062
        k(  138) = (   0.2500000   0.1250000   0.1250000), wk =   0.0039062
        k(  139) = (   0.2500000   0.1250000   0.2500000), wk =   0.0039062
        k(  140) = (   0.2500000   0.1250000   0.3750000), wk =   0.0039062
        k(  141) = (   0.2500000   0.1250000  -0.5000000), wk =   0.0039062
        k(  142) = (   0.2500000   0.1250000  -0.3750000), wk =   0.0039062
        k(  143) = (   0.2500000   0.1250000  -0.2500000), wk =   0.0039062
        k(  144) = (   0.2500000   0.1250000  -0.1250000), wk =   0.0039062
        k(  145) = (   0.2500000   0.2500000   0.0000000), wk =   0.0039062
        k(  146) = (   0.2500000   0.2500000   0.1250000), wk =   0.0039062
        k(  147) = (   0.2500000   0.2500000   0.2500000), wk =   0.0039062
        k(  148) = (   0.2500000   0.2500000   0.3750000), wk =   0.0039062
        k(  149) = (   0.2500000   0.2500000  -0.5000000), wk =   0.0039062
        k(  150) = (   0.2500000   0.2500000  -0.3750000), wk =   0.0039062
        k(  151) = (   0.2500000   0.2500000  -0.2500000), wk =   0.0039062
        k(  152) = (   0.2500000   0.2500000  -0.1250000), wk =   0.0039062
        k(  153) = (   0.2500000   0.3750000   0.0000000), wk =   0.0039062
        k(  154) = (   0.2500000   0.3750000   0.1250000), wk =   0.0039062
        k(  155) = (   0.2500000   0.3750000   0.2500000), wk =   0.0039062
        k(  156) = (   0.2500000   0.3750000   0.3750000), wk =   0.0039062
        k(  157) = (   0.2500000   0.3750000  -0.5000000), wk =   0.0039062
        k(  158) = (   0.2500000   0.3750000  -0.3750000), wk =   0.0039062
        k(  159) = (   0.2500000   0.3750000  -0.2500000), wk =   0.0039062
        k(  160) = (   0.2500000   0.3750000  -0.1250000), wk =   0.0039062
        k(  161) = (   0.2500000  -0.5000000  -0.0000000), wk =   0.0039062
        k(  162) = (   0.2500000  -0.5000000   0.1250000), wk =   0.0039062
        k(  163) = (   0.2500000  -0.5000000   0.2500000), wk =   0.0039062
        k(  164) = (   0.2500000  -0.5000000   0.3750000), wk =   0.0039062
        k(  165) = (   0.2500000  -0.5000000  -0.5000000), wk =   0.0039062
        k(  166) = (   0.2500000  -0.5000000  -0.3750000), wk =   0.0039062
        k(  167) = (   0.2500000  -0.5000000  -0.2500000), wk =   0.0039062
        k(  168) = (   0.2500000  -0.5000000  -0.1250000), wk =   0.0039062
        k(  169) = (   0.2500000  -0.3750000  -0.0000000), wk =   0.0039062
        k(  170) = (   0.2500000  -0.3750000   0.1250000), wk =   0.0039062
        k(  171) = (   0.2500000  -0.3750000   0.2500000), wk =   0.0039062
        k(  172) = (   0.2500000  -0.3750000   0.3750000), wk =   0.0039062
        k(  173) = (   0.2500000  -0.3750000  -0.5000000), wk =   0.0039062
        k(  174) = (   0.2500000  -0.3750000  -0.3750000), wk =   0.0039062
        k(  175) = (   0.2500000  -0.3750000  -0.2500000), wk =   0.0039062
        k(  176) = (   0.2500000  -0.3750000  -0.1250000), wk =   0.0039062
        k(  177) = (   0.2500000  -0.2500000   0.0000000), wk =   0.0039062
        k(  178) = (   0.2500000  -0.2500000   0.1250000), wk =   0.0039062
        k(  179) = (   0.2500000  -0.2500000   0.2500000), wk =   0.0039062
        k(  180) = (   0.2500000  -0.2500000   0.3750000), wk =   0.0039062
        k(  181) = (   0.2500000  -0.2500000  -0.5000000), wk =   0.0039062
        k(  182) = (   0.2500000  -0.2500000  -0.3750000), wk =   0.0039062
        k(  183) = (   0.2500000  -0.2500000  -0.2500000), wk =   0.0039062
        k(  184) = (   0.2500000  -0.2500000  -0.1250000), wk =   0.0039062
        k(  185) = (   0.2500000  -0.1250000   0.0000000), wk =   0.0039062
        k(  186) = (   0.2500000  -0.1250000   0.1250000), wk =   0.0039062
        k(  187) = (   0.2500000  -0.1250000   0.2500000), wk =   0.0039062
        k(  188) = (   0.2500000  -0.1250000   0.3750000), wk =   0.0039062
        k(  189) = (   0.2500000  -0.1250000  -0.5000000), wk =   0.0039062
        k(  190) = (   0.2500000  -0.1250000  -0.3750000), wk =   0.0039062
        k(  191) = (   0.2500000  -0.1250000  -0.2500000), wk =   0.0039062
        k(  192) = (   0.2500000  -0.1250000  -0.1250000), wk =   0.0039062
        k(  193) = (   0.3750000  -0.0000000   0.0000000), wk =   0.0039062
        k(  194) = (   0.3750000  -0.0000000   0.1250000), wk =   0.0039062
        k(  195) = (   0.3750000  -0.0000000   0.2500000), wk =   0.0039062
        k(  196) = (   0.3750000  -0.0000000   0.3750000), wk =   0.0039062
        k(  197) = (   0.3750000  -0.0000000  -0.5000000), wk =   0.0039062
        k(  198) = (   0.3750000  -0.0000000  -0.3750000), wk =   0.0039062
        k(  199) = (   0.3750000  -0.0000000  -0.2500000), wk =   0.0039062
        k(  200) = (   0.3750000  -0.0000000  -0.1250000), wk =   0.0039062
        k(  201) = (   0.3750000   0.1250000   0.0000000), wk =   0.0039062
        k(  202) = (   0.3750000   0.1250000   0.1250000), wk =   0.0039062
        k(  203) = (   0.3750000   0.1250000   0.2500000), wk =   0.0039062
        k(  204) = (   0.3750000   0.1250000   0.3750000), wk =   0.0039062
        k(  205) = (   0.3750000   0.1250000  -0.5000000), wk =   0.0039062
        k(  206) = (   0.3750000   0.1250000  -0.3750000), wk =   0.0039062
        k(  207) = (   0.3750000   0.1250000  -0.2500000), wk =   0.0039062
        k(  208) = (   0.3750000   0.1250000  -0.1250000), wk =   0.0039062
        k(  209) = (   0.3750000   0.2500000  -0.0000000), wk =   0.0039062
        k(  210) = (   0.3750000   0.2500000   0.1250000), wk =   0.0039062
        k(  211) = (   0.3750000   0.2500000   0.2500000), wk =   0.0039062
        k(  212) = (   0.3750000   0.2500000   0.3750000), wk =   0.0039062
        k(  213) = (   0.3750000   0.2500000  -0.5000000), wk =   0.0039062
        k(  214) = (   0.3750000   0.2500000  -0.3750000), wk =   0.0039062
        k(  215) = (   0.3750000   0.2500000  -0.2500000), wk =   0.0039062
        k(  216) = (   0.3750000   0.2500000  -0.1250000), wk =   0.0039062
        k(  217) = (   0.3750000   0.3750000   0.0000000), wk =   0.0039062
        k(  218) = (   0.3750000   0.3750000   0.1250000), wk =   0.0039062
        k(  219) = (   0.3750000   0.3750000   0.2500000), wk =   0.0039062
        k(  220) = (   0.3750000   0.3750000   0.3750000), wk =   0.0039062
        k(  221) = (   0.3750000   0.3750000  -0.5000000), wk =   0.0039062
        k(  222) = (   0.3750000   0.3750000  -0.3750000), wk =   0.0039062
        k(  223) = (   0.3750000   0.3750000  -0.2500000), wk =   0.0039062
        k(  224) = (   0.3750000   0.3750000  -0.1250000), wk =   0.0039062
        k(  225) = (   0.3750000  -0.5000000   0.0000000), wk =   0.0039062
        k(  226) = (   0.3750000  -0.5000000   0.1250000), wk =   0.0039062
        k(  227) = (   0.3750000  -0.5000000   0.2500000), wk =   0.0039062
        k(  228) = (   0.3750000  -0.5000000   0.3750000), wk =   0.0039062
        k(  229) = (   0.3750000  -0.5000000  -0.5000000), wk =   0.0039062
        k(  230) = (   0.3750000  -0.5000000  -0.3750000), wk =   0.0039062
        k(  231) = (   0.3750000  -0.5000000  -0.2500000), wk =   0.0039062
        k(  232) = (   0.3750000  -0.5000000  -0.1250000), wk =   0.0039062
        k(  233) = (   0.3750000  -0.3750000  -0.0000000), wk =   0.0039062
        k(  234) = (   0.3750000  -0.3750000   0.1250000), wk =   0.0039062
        k(  235) = (   0.3750000  -0.3750000   0.2500000), wk =   0.0039062
        k(  236) = (   0.3750000  -0.3750000   0.3750000), wk =   0.0039062
        k(  237) = (   0.3750000  -0.3750000  -0.5000000), wk =   0.0039062
        k(  238) = (   0.3750000  -0.3750000  -0.3750000), wk =   0.0039062
        k(  239) = (   0.3750000  -0.3750000  -0.2500000), wk =   0.0039062
        k(  240) = (   0.3750000  -0.3750000  -0.1250000), wk =   0.0039062
        k(  241) = (   0.3750000  -0.2500000   0.0000000), wk =   0.0039062
        k(  242) = (   0.3750000  -0.2500000   0.1250000), wk =   0.0039062
        k(  243) = (   0.3750000  -0.2500000   0.2500000), wk =   0.0039062
        k(  244) = (   0.3750000  -0.2500000   0.3750000), wk =   0.0039062
        k(  245) = (   0.3750000  -0.2500000  -0.5000000), wk =   0.0039062
        k(  246) = (   0.3750000  -0.2500000  -0.3750000), wk =   0.0039062
        k(  247) = (   0.3750000  -0.2500000  -0.2500000), wk =   0.0039062
        k(  248) = (   0.3750000  -0.2500000  -0.1250000), wk =   0.0039062
        k(  249) = (   0.3750000  -0.1250000   0.0000000), wk =   0.0039062
        k(  250) = (   0.3750000  -0.1250000   0.1250000), wk =   0.0039062
        k(  251) = (   0.3750000  -0.1250000   0.2500000), wk =   0.0039062
        k(  252) = (   0.3750000  -0.1250000   0.3750000), wk =   0.0039062
        k(  253) = (   0.3750000  -0.1250000  -0.5000000), wk =   0.0039062
        k(  254) = (   0.3750000  -0.1250000  -0.3750000), wk =   0.0039062
        k(  255) = (   0.3750000  -0.1250000  -0.2500000), wk =   0.0039062
        k(  256) = (   0.3750000  -0.1250000  -0.1250000), wk =   0.0039062
        k(  257) = (  -0.5000000   0.0000000   0.0000000), wk =   0.0039062
        k(  258) = (  -0.5000000   0.0000000   0.1250000), wk =   0.0039062
        k(  259) = (  -0.5000000   0.0000000   0.2500000), wk =   0.0039062
        k(  260) = (  -0.5000000   0.0000000   0.3750000), wk =   0.0039062
        k(  261) = (  -0.5000000   0.0000000  -0.5000000), wk =   0.0039062
        k(  262) = (  -0.5000000   0.0000000  -0.3750000), wk =   0.0039062
        k(  263) = (  -0.5000000   0.0000000  -0.2500000), wk =   0.0039062
        k(  264) = (  -0.5000000   0.0000000  -0.1250000), wk =   0.0039062
        k(  265) = (  -0.5000000   0.1250000   0.0000000), wk =   0.0039062
        k(  266) = (  -0.5000000   0.1250000   0.1250000), wk =   0.0039062
        k(  267) = (  -0.5000000   0.1250000   0.2500000), wk =   0.0039062
        k(  268) = (  -0.5000000   0.1250000   0.3750000), wk =   0.0039062
        k(  269) = (  -0.5000000   0.1250000  -0.5000000), wk =   0.0039062
        k(  270) = (  -0.5000000   0.1250000  -0.3750000), wk =   0.0039062
        k(  271) = (  -0.5000000   0.1250000  -0.2500000), wk =   0.0039062
        k(  272) = (  -0.5000000   0.1250000  -0.1250000), wk =   0.0039062
        k(  273) = (  -0.5000000   0.2500000   0.0000000), wk =   0.0039062
        k(  274) = (  -0.5000000   0.2500000   0.1250000), wk =   0.0039062
        k(  275) = (  -0.5000000   0.2500000   0.2500000), wk =   0.0039062
        k(  276) = (  -0.5000000   0.2500000   0.3750000), wk =   0.0039062
        k(  277) = (  -0.5000000   0.2500000  -0.5000000), wk =   0.0039062
        k(  278) = (  -0.5000000   0.2500000  -0.3750000), wk =   0.0039062
        k(  279) = (  -0.5000000   0.2500000  -0.2500000), wk =   0.0039062
        k(  280) = (  -0.5000000   0.2500000  -0.1250000), wk =   0.0039062
        k(  281) = (  -0.5000000   0.3750000   0.0000000), wk =   0.0039062
        k(  282) = (  -0.5000000   0.3750000   0.1250000), wk =   0.0039062
        k(  283) = (  -0.5000000   0.3750000   0.2500000), wk =   0.0039062
        k(  284) = (  -0.5000000   0.3750000   0.3750000), wk =   0.0039062
        k(  285) = (  -0.5000000   0.3750000  -0.5000000), wk =   0.0039062
        k(  286) = (  -0.5000000   0.3750000  -0.3750000), wk =   0.0039062
        k(  287) = (  -0.5000000   0.3750000  -0.2500000), wk =   0.0039062
        k(  288) = (  -0.5000000   0.3750000  -0.1250000), wk =   0.0039062
        k(  289) = (  -0.5000000  -0.5000000  -0.0000000), wk =   0.0039062
        k(  290) = (  -0.5000000  -0.5000000   0.1250000), wk =   0.0039062
        k(  291) = (  -0.5000000  -0.5000000   0.2500000), wk =   0.0039062
        k(  292) = (  -0.5000000  -0.5000000   0.3750000), wk =   0.0039062
        k(  293) = (  -0.5000000  -0.5000000  -0.5000000), wk =   0.0039062
        k(  294) = (  -0.5000000  -0.5000000  -0.3750000), wk =   0.0039062
        k(  295) = (  -0.5000000  -0.5000000  -0.2500000), wk =   0.0039062
        k(  296) = (  -0.5000000  -0.5000000  -0.1250000), wk =   0.0039062
        k(  297) = (  -0.5000000  -0.3750000   0.0000000), wk =   0.0039062
        k(  298) = (  -0.5000000  -0.3750000   0.1250000), wk =   0.0039062
        k(  299) = (  -0.5000000  -0.3750000   0.2500000), wk =   0.0039062
        k(  300) = (  -0.5000000  -0.3750000   0.3750000), wk =   0.0039062
        k(  301) = (  -0.5000000  -0.3750000  -0.5000000), wk =   0.0039062
        k(  302) = (  -0.5000000  -0.3750000  -0.3750000), wk =   0.0039062
        k(  303) = (  -0.5000000  -0.3750000  -0.2500000), wk =   0.0039062
        k(  304) = (  -0.5000000  -0.3750000  -0.1250000), wk =   0.0039062
        k(  305) = (  -0.5000000  -0.2500000   0.0000000), wk =   0.0039062
        k(  306) = (  -0.5000000  -0.2500000   0.1250000), wk =   0.0039062
        k(  307) = (  -0.5000000  -0.2500000   0.2500000), wk =   0.0039062
        k(  308) = (  -0.5000000  -0.2500000   0.3750000), wk =   0.0039062
        k(  309) = (  -0.5000000  -0.2500000  -0.5000000), wk =   0.0039062
        k(  310) = (  -0.5000000  -0.2500000  -0.3750000), wk =   0.0039062
        k(  311) = (  -0.5000000  -0.2500000  -0.2500000), wk =   0.0039062
        k(  312) = (  -0.5000000  -0.2500000  -0.1250000), wk =   0.0039062
        k(  313) = (  -0.5000000  -0.1250000   0.0000000), wk =   0.0039062
        k(  314) = (  -0.5000000  -0.1250000   0.1250000), wk =   0.0039062
        k(  315) = (  -0.5000000  -0.1250000   0.2500000), wk =   0.0039062
        k(  316) = (  -0.5000000  -0.1250000   0.3750000), wk =   0.0039062
        k(  317) = (  -0.5000000  -0.1250000  -0.5000000), wk =   0.0039062
        k(  318) = (  -0.5000000  -0.1250000  -0.3750000), wk =   0.0039062
        k(  319) = (  -0.5000000  -0.1250000  -0.2500000), wk =   0.0039062
        k(  320) = (  -0.5000000  -0.1250000  -0.1250000), wk =   0.0039062
        k(  321) = (  -0.3750000   0.0000000   0.0000000), wk =   0.0039062
        k(  322) = (  -0.3750000   0.0000000   0.1250000), wk =   0.0039062
        k(  323) = (  -0.3750000   0.0000000   0.2500000), wk =   0.0039062
        k(  324) = (  -0.3750000   0.0000000   0.3750000), wk =   0.0039062
        k(  325) = (  -0.3750000   0.0000000  -0.5000000), wk =   0.0039062
        k(  326) = (  -0.3750000   0.0000000  -0.3750000), wk =   0.0039062
        k(  327) = (  -0.3750000   0.0000000  -0.2500000), wk =   0.0039062
        k(  328) = (  -0.3750000   0.0000000  -0.1250000), wk =   0.0039062
        k(  329) = (  -0.3750000   0.1250000   0.0000000), wk =   0.0039062
        k(  330) = (  -0.3750000   0.1250000   0.1250000), wk =   0.0039062
        k(  331) = (  -0.3750000   0.1250000   0.2500000), wk =   0.0039062
        k(  332) = (  -0.3750000   0.1250000   0.3750000), wk =   0.0039062
        k(  333) = (  -0.3750000   0.1250000  -0.5000000), wk =   0.0039062
        k(  334) = (  -0.3750000   0.1250000  -0.3750000), wk =   0.0039062
        k(  335) = (  -0.3750000   0.1250000  -0.2500000), wk =   0.0039062
        k(  336) = (  -0.3750000   0.1250000  -0.1250000), wk =   0.0039062
        k(  337) = (  -0.3750000   0.2500000   0.0000000), wk =   0.0039062
        k(  338) = (  -0.3750000   0.2500000   0.1250000), wk =   0.0039062
        k(  339) = (  -0.3750000   0.2500000   0.2500000), wk =   0.0039062
        k(  340) = (  -0.3750000   0.2500000   0.3750000), wk =   0.0039062
        k(  341) = (  -0.3750000   0.2500000  -0.5000000), wk =   0.0039062
        k(  342) = (  -0.3750000   0.2500000  -0.3750000), wk =   0.0039062
        k(  343) = (  -0.3750000   0.2500000  -0.2500000), wk =   0.0039062
        k(  344) = (  -0.3750000   0.2500000  -0.1250000), wk =   0.0039062
        k(  345) = (  -0.3750000   0.3750000   0.0000000), wk =   0.0039062
        k(  346) = (  -0.3750000   0.3750000   0.1250000), wk =   0.0039062
        k(  347) = (  -0.3750000   0.3750000   0.2500000), wk =   0.0039062
        k(  348) = (  -0.3750000   0.3750000   0.3750000), wk =   0.0039062
        k(  349) = (  -0.3750000   0.3750000  -0.5000000), wk =   0.0039062
        k(  350) = (  -0.3750000   0.3750000  -0.3750000), wk =   0.0039062
        k(  351) = (  -0.3750000   0.3750000  -0.2500000), wk =   0.0039062
        k(  352) = (  -0.3750000   0.3750000  -0.1250000), wk =   0.0039062
        k(  353) = (  -0.3750000  -0.5000000   0.0000000), wk =   0.0039062
        k(  354) = (  -0.3750000  -0.5000000   0.1250000), wk =   0.0039062
        k(  355) = (  -0.3750000  -0.5000000   0.2500000), wk =   0.0039062
        k(  356) = (  -0.3750000  -0.5000000   0.3750000), wk =   0.0039062
        k(  357) = (  -0.3750000  -0.5000000  -0.5000000), wk =   0.0039062
        k(  358) = (  -0.3750000  -0.5000000  -0.3750000), wk =   0.0039062
        k(  359) = (  -0.3750000  -0.5000000  -0.2500000), wk =   0.0039062
        k(  360) = (  -0.3750000  -0.5000000  -0.1250000), wk =   0.0039062
        k(  361) = (  -0.3750000  -0.3750000   0.0000000), wk =   0.0039062
        k(  362) = (  -0.3750000  -0.3750000   0.1250000), wk =   0.0039062
        k(  363) = (  -0.3750000  -0.3750000   0.2500000), wk =   0.0039062
        k(  364) = (  -0.3750000  -0.3750000   0.3750000), wk =   0.0039062
        k(  365) = (  -0.3750000  -0.3750000  -0.5000000), wk =   0.0039062
        k(  366) = (  -0.3750000  -0.3750000  -0.3750000), wk =   0.0039062
        k(  367) = (  -0.3750000  -0.3750000  -0.2500000), wk =   0.0039062
        k(  368) = (  -0.3750000  -0.3750000  -0.1250000), wk =   0.0039062
        k(  369) = (  -0.3750000  -0.2500000   0.0000000), wk =   0.0039062
        k(  370) = (  -0.3750000  -0.2500000   0.1250000), wk =   0.0039062
        k(  371) = (  -0.3750000  -0.2500000   0.2500000), wk =   0.0039062
        k(  372) = (  -0.3750000  -0.2500000   0.3750000), wk =   0.0039062
        k(  373) = (  -0.3750000  -0.2500000  -0.5000000), wk =   0.0039062
        k(  374) = (  -0.3750000  -0.2500000  -0.3750000), wk =   0.0039062
        k(  375) = (  -0.3750000  -0.2500000  -0.2500000), wk =   0.0039062
        k(  376) = (  -0.3750000  -0.2500000  -0.1250000), wk =   0.0039062
        k(  377) = (  -0.3750000  -0.1250000   0.0000000), wk =   0.0039062
        k(  378) = (  -0.3750000  -0.1250000   0.1250000), wk =   0.0039062
        k(  379) = (  -0.3750000  -0.1250000   0.2500000), wk =   0.0039062
        k(  380) = (  -0.3750000  -0.1250000   0.3750000), wk =   0.0039062
        k(  381) = (  -0.3750000  -0.1250000  -0.5000000), wk =   0.0039062
        k(  382) = (  -0.3750000  -0.1250000  -0.3750000), wk =   0.0039062
        k(  383) = (  -0.3750000  -0.1250000  -0.2500000), wk =   0.0039062
        k(  384) = (  -0.3750000  -0.1250000  -0.1250000), wk =   0.0039062
        k(  385) = (  -0.2500000   0.0000000   0.0000000), wk =   0.0039062
        k(  386) = (  -0.2500000   0.0000000   0.1250000), wk =   0.0039062
        k(  387) = (  -0.2500000   0.0000000   0.2500000), wk =   0.0039062
        k(  388) = (  -0.2500000   0.0000000   0.3750000), wk =   0.0039062
        k(  389) = (  -0.2500000   0.0000000  -0.5000000), wk =   0.0039062
        k(  390) = (  -0.2500000   0.0000000  -0.3750000), wk =   0.0039062
        k(  391) = (  -0.2500000   0.0000000  -0.2500000), wk =   0.0039062
        k(  392) = (  -0.2500000   0.0000000  -0.1250000), wk =   0.0039062
        k(  393) = (  -0.2500000   0.1250000   0.0000000), wk =   0.0039062
        k(  394) = (  -0.2500000   0.1250000   0.1250000), wk =   0.0039062
        k(  395) = (  -0.2500000   0.1250000   0.2500000), wk =   0.0039062
        k(  396) = (  -0.2500000   0.1250000   0.3750000), wk =   0.0039062
        k(  397) = (  -0.2500000   0.1250000  -0.5000000), wk =   0.0039062
        k(  398) = (  -0.2500000   0.1250000  -0.3750000), wk =   0.0039062
        k(  399) = (  -0.2500000   0.1250000  -0.2500000), wk =   0.0039062
        k(  400) = (  -0.2500000   0.1250000  -0.1250000), wk =   0.0039062
        k(  401) = (  -0.2500000   0.2500000  -0.0000000), wk =   0.0039062
        k(  402) = (  -0.2500000   0.2500000   0.1250000), wk =   0.0039062
        k(  403) = (  -0.2500000   0.2500000   0.2500000), wk =   0.0039062
        k(  404) = (  -0.2500000   0.2500000   0.3750000), wk =   0.0039062
        k(  405) = (  -0.2500000   0.2500000  -0.5000000), wk =   0.0039062
        k(  406) = (  -0.2500000   0.2500000  -0.3750000), wk =   0.0039062
        k(  407) = (  -0.2500000   0.2500000  -0.2500000), wk =   0.0039062
        k(  408) = (  -0.2500000   0.2500000  -0.1250000), wk =   0.0039062
        k(  409) = (  -0.2500000   0.3750000   0.0000000), wk =   0.0039062
        k(  410) = (  -0.2500000   0.3750000   0.1250000), wk =   0.0039062
        k(  411) = (  -0.2500000   0.3750000   0.2500000), wk =   0.0039062
        k(  412) = (  -0.2500000   0.3750000   0.3750000), wk =   0.0039062
        k(  413) = (  -0.2500000   0.3750000  -0.5000000), wk =   0.0039062
        k(  414) = (  -0.2500000   0.3750000  -0.3750000), wk =   0.0039062
        k(  415) = (  -0.2500000   0.3750000  -0.2500000), wk =   0.0039062
        k(  416) = (  -0.2500000   0.3750000  -0.1250000), wk =   0.0039062
        k(  417) = (  -0.2500000  -0.5000000   0.0000000), wk =   0.0039062
        k(  418) = (  -0.2500000  -0.5000000   0.1250000), wk =   0.0039062
        k(  419) = (  -0.2500000  -0.5000000   0.2500000), wk =   0.0039062
        k(  420) = (  -0.2500000  -0.5000000   0.3750000), wk =   0.0039062
        k(  421) = (  -0.2500000  -0.5000000  -0.5000000), wk =   0.0039062
        k(  422) = (  -0.2500000  -0.5000000  -0.3750000), wk =   0.0039062
        k(  423) = (  -0.2500000  -0.5000000  -0.2500000), wk =   0.0039062
        k(  424) = (  -0.2500000  -0.5000000  -0.1250000), wk =   0.0039062
        k(  425) = (  -0.2500000  -0.3750000  -0.0000000), wk =   0.0039062
        k(  426) = (  -0.2500000  -0.3750000   0.1250000), wk =   0.0039062
        k(  427) = (  -0.2500000  -0.3750000   0.2500000), wk =   0.0039062
        k(  428) = (  -0.2500000  -0.3750000   0.3750000), wk =   0.0039062
        k(  429) = (  -0.2500000  -0.3750000  -0.5000000), wk =   0.0039062
        k(  430) = (  -0.2500000  -0.3750000  -0.3750000), wk =   0.0039062
        k(  431) = (  -0.2500000  -0.3750000  -0.2500000), wk =   0.0039062
        k(  432) = (  -0.2500000  -0.3750000  -0.1250000), wk =   0.0039062
        k(  433) = (  -0.2500000  -0.2500000  -0.0000000), wk =   0.0039062
        k(  434) = (  -0.2500000  -0.2500000   0.1250000), wk =   0.0039062
        k(  435) = (  -0.2500000  -0.2500000   0.2500000), wk =   0.0039062
        k(  436) = (  -0.2500000  -0.2500000   0.3750000), wk =   0.0039062
        k(  437) = (  -0.2500000  -0.2500000  -0.5000000), wk =   0.0039062
        k(  438) = (  -0.2500000  -0.2500000  -0.3750000), wk =   0.0039062
        k(  439) = (  -0.2500000  -0.2500000  -0.2500000), wk =   0.0039062
        k(  440) = (  -0.2500000  -0.2500000  -0.1250000), wk =   0.0039062
        k(  441) = (  -0.2500000  -0.1250000   0.0000000), wk =   0.0039062
        k(  442) = (  -0.2500000  -0.1250000   0.1250000), wk =   0.0039062
        k(  443) = (  -0.2500000  -0.1250000   0.2500000), wk =   0.0039062
        k(  444) = (  -0.2500000  -0.1250000   0.3750000), wk =   0.0039062
        k(  445) = (  -0.2500000  -0.1250000  -0.5000000), wk =   0.0039062
        k(  446) = (  -0.2500000  -0.1250000  -0.3750000), wk =   0.0039062
        k(  447) = (  -0.2500000  -0.1250000  -0.2500000), wk =   0.0039062
        k(  448) = (  -0.2500000  -0.1250000  -0.1250000), wk =   0.0039062
        k(  449) = (  -0.1250000   0.0000000   0.0000000), wk =   0.0039062
        k(  450) = (  -0.1250000   0.0000000   0.1250000), wk =   0.0039062
        k(  451) = (  -0.1250000   0.0000000   0.2500000), wk =   0.0039062
        k(  452) = (  -0.1250000   0.0000000   0.3750000), wk =   0.0039062
        k(  453) = (  -0.1250000   0.0000000  -0.5000000), wk =   0.0039062
        k(  454) = (  -0.1250000   0.0000000  -0.3750000), wk =   0.0039062
        k(  455) = (  -0.1250000   0.0000000  -0.2500000), wk =   0.0039062
        k(  456) = (  -0.1250000   0.0000000  -0.1250000), wk =   0.0039062
        k(  457) = (  -0.1250000   0.1250000  -0.0000000), wk =   0.0039062
        k(  458) = (  -0.1250000   0.1250000   0.1250000), wk =   0.0039062
        k(  459) = (  -0.1250000   0.1250000   0.2500000), wk =   0.0039062
        k(  460) = (  -0.1250000   0.1250000   0.3750000), wk =   0.0039062
        k(  461) = (  -0.1250000   0.1250000  -0.5000000), wk =   0.0039062
        k(  462) = (  -0.1250000   0.1250000  -0.3750000), wk =   0.0039062
        k(  463) = (  -0.1250000   0.1250000  -0.2500000), wk =   0.0039062
        k(  464) = (  -0.1250000   0.1250000  -0.1250000), wk =   0.0039062
        k(  465) = (  -0.1250000   0.2500000   0.0000000), wk =   0.0039062
        k(  466) = (  -0.1250000   0.2500000   0.1250000), wk =   0.0039062
        k(  467) = (  -0.1250000   0.2500000   0.2500000), wk =   0.0039062
        k(  468) = (  -0.1250000   0.2500000   0.3750000), wk =   0.0039062
        k(  469) = (  -0.1250000   0.2500000  -0.5000000), wk =   0.0039062
        k(  470) = (  -0.1250000   0.2500000  -0.3750000), wk =   0.0039062
        k(  471) = (  -0.1250000   0.2500000  -0.2500000), wk =   0.0039062
        k(  472) = (  -0.1250000   0.2500000  -0.1250000), wk =   0.0039062
        k(  473) = (  -0.1250000   0.3750000   0.0000000), wk =   0.0039062
        k(  474) = (  -0.1250000   0.3750000   0.1250000), wk =   0.0039062
        k(  475) = (  -0.1250000   0.3750000   0.2500000), wk =   0.0039062
        k(  476) = (  -0.1250000   0.3750000   0.3750000), wk =   0.0039062
        k(  477) = (  -0.1250000   0.3750000  -0.5000000), wk =   0.0039062
        k(  478) = (  -0.1250000   0.3750000  -0.3750000), wk =   0.0039062
        k(  479) = (  -0.1250000   0.3750000  -0.2500000), wk =   0.0039062
        k(  480) = (  -0.1250000   0.3750000  -0.1250000), wk =   0.0039062
        k(  481) = (  -0.1250000  -0.5000000   0.0000000), wk =   0.0039062
        k(  482) = (  -0.1250000  -0.5000000   0.1250000), wk =   0.0039062
        k(  483) = (  -0.1250000  -0.5000000   0.2500000), wk =   0.0039062
        k(  484) = (  -0.1250000  -0.5000000   0.3750000), wk =   0.0039062
        k(  485) = (  -0.1250000  -0.5000000  -0.5000000), wk =   0.0039062
[...]
     1.0000   1.0000   0.0000   0.0000

          k =-0.2250-0.2728 0.2523 (   506 PWs)   bands (ev):

    -0.0878   3.1738  11.1859  12.1035

     occupation numbers 
     1.0000   1.0000   0.0000   0.0000

          k =-0.2404-0.2846-0.3771 (   503 PWs)   bands (ev):

     0.7007   1.9605  10.6016  12.6575

     occupation numbers 
     1.0000   1.0000   0.0000   0.0000

          k =-0.2382-0.2829-0.2872 (   508 PWs)   bands (ev):

     0.4117   2.3858   9.7638  13.5819

     occupation numbers 
     1.0000   1.0000   0.0000   0.0000

          k =-0.2360-0.2812-0.1972 (   509 PWs)   bands (ev):

    -0.3571   3.8666   9.1122  13.6780

     occupation numbers 
     1.0000   1.0000   0.0000   0.0000

          k =-0.2338-0.2795-0.1073 (   510 PWs)   bands (ev):

    -0.8869   5.6406   8.5677  12.8226

     occupation numbers 
     1.0000   1.0000   0.0000   0.0000

          k =-0.1208-0.0680-0.0080 (   507 PWs)   bands (ev):

    -3.3022   4.8030  10.1719  15.8742

     occupation numbers 
     1.0000   1.0000   0.0000   0.0000

          k =-0.1186-0.0663 0.0819 (   509 PWs)   bands (ev):

    -3.1913   4.0596  11.2440  16.2058

     occupation numbers 
     1.0000   1.0000   0.0000   0.0000

          k =-0.1164-0.0646 0.1718 (   505 PWs)   bands (ev):

    -2.7809   2.4247  13.8219  16.8151

     occupation numbers 
     1.0000   1.0000   0.0000   0.0000

          k =-0.1142-0.0629 0.2617 (   501 PWs)   bands (ev):

    -2.0827   0.8286  16.5936  17.6530

     occupation numbers 
     1.0000   1.0000   0.0000   0.0000

          k =-0.1296-0.0747-0.3677 (   507 PWs)   bands (ev):

    -1.3102  -0.3069  16.5239  18.9832

     occupation numbers 
     1.0000   1.0000   0.0000   0.0000

          k =-0.1274-0.0730-0.2778 (   508 PWs)   bands (ev):

    -1.8642   0.4761  15.5118  18.1749

     occupation numbers 
     1.0000   1.0000   0.0000   0.0000

          k =-0.1252-0.0714-0.1879 (   507 PWs)   bands (ev):

    -2.6231   2.0237  13.8058  16.5238

     occupation numbers 
     1.0000   1.0000   0.0000   0.0000

          k =-0.1230-0.0697-0.0980 (   502 PWs)   bands (ev):

    -3.1124   3.7105  11.5162  15.9124

     occupation numbers 
     1.0000   1.0000   0.0000   0.0000

          k =-0.1307 0.0739-0.0067 (   507 PWs)   bands (ev):

    -3.2442   4.9057  10.1470  16.6939

     occupation numbers 
     1.0000   1.0000   0.0000   0.0000

          k =-0.1285 0.0756 0.0832 (   509 PWs)   bands (ev):

    -3.1214   4.0782  11.3035  17.0062

     occupation numbers 
     1.0000   1.0000   0.0000   0.0000

          k =-0.1263 0.0773 0.1731 (   508 PWs)   bands (ev):

    -2.6983   2.4181  13.9207  17.6306

     occupation numbers 
     1.0000   1.0000   0.0000   0.0000

          k =-0.1241 0.0790 0.2630 (   504 PWs)   bands (ev):

    -1.9904   0.8249  16.9300  18.5188

     occupation numbers 
     1.0000   1.0000   0.0000   0.0000

          k =-0.1395 0.0672-0.3664 (   503 PWs)   bands (ev):

    -1.2393  -0.2647  18.2578  18.9593

     occupation numbers 
     1.0000   1.0000   0.0000   0.0000

          k =-0.1373 0.0689-0.2765 (   501 PWs)   bands (ev):

    -1.8424   0.5925  16.8149  17.6819

     occupation numbers 
     1.0000   1.0000   0.0000   0.0000

          k =-0.1351 0.0705-0.1865 (   508 PWs)   bands (ev):

    -2.5917   2.1560  14.0782  17.0322

     occupation numbers 
     1.0000   1.0000   0.0000   0.0000

          k =-0.1329 0.0722-0.0966 (   508 PWs)   bands (ev):

    -3.0664   3.8508  11.5047  16.7059

     occupation numbers 
     1.0000   1.0000   0.0000   0.0000

          k =-0.1407 0.2158-0.0054 (   508 PWs)   bands (ev):

    -2.4077   5.9633   9.8051  14.2832

     occupation numbers 
     1.0000   1.0000   0.0000   0.0000

          k =-0.1385 0.2175 0.0845 (   509 PWs)   bands (ev):

    -2.2728   4.9290  11.0676  14.4952

     occupation numbers 
     1.0000   1.0000   0.0000   0.0000

          k =-0.1363 0.2192 0.1745 (   507 PWs)   bands (ev):

    -1.8416   3.1873  13.1627  15.3579

     occupation numbers 
     1.0000   1.0000   0.0000   0.0000

          k =-0.1341 0.2209 0.2644 (   505 PWs)   bands (ev):

    -1.1313   1.5914  14.6015  17.0481

     occupation numbers 
     1.0000   1.0000   0.0000   0.0000

          k =-0.1495 0.2091-0.3650 (   498 PWs)   bands (ev):

    -0.4155   0.5606  15.3707  17.1980

     occupation numbers 
     1.0000   1.0000   0.0000   0.0000

          k =-0.1473 0.2108-0.2751 (   499 PWs)   bands (ev):

    -1.0515   1.4812  14.7586  16.3713

     occupation numbers 
     1.0000   1.0000   0.0000   0.0000

          k =-0.1451 0.2124-0.1852 (   506 PWs)   bands (ev):

    -1.7845   3.0706  13.1371  15.2397

     occupation numbers 
     1.0000   1.0000   0.0000   0.0000

          k =-0.1429 0.2141-0.0953 (   505 PWs)   bands (ev):

    -2.2431   4.8343  11.0654  14.5265

     occupation numbers 
     1.0000   1.0000   0.0000   0.0000

          k =-0.1506 0.3577-0.0040 (   506 PWs)   bands (ev):

    -0.7972   7.7760   7.9272  12.0854

     occupation numbers 
     1.0000   0.0000   0.0000   0.0000

          k =-0.1484 0.3594 0.0859 (   505 PWs)   bands (ev):

    -0.6539   6.1821   8.9835  12.9686

     occupation numbers 
     1.0000   1.0000   0.0000   0.0000

          k =-0.1462 0.3611 0.1758 (   510 PWs)   bands (ev):

    -0.2219   4.5022   9.7174  14.4848

     occupation numbers 
     1.0000   1.0000   0.0000   0.0000

          k =-0.1440 0.3628 0.2657 (   506 PWs)   bands (ev):

     0.4775   3.0061  10.4652  13.9780

     occupation numbers 
     1.0000   1.0000   0.0000   0.0000

          k =-0.1594 0.3510-0.3637 (   500 PWs)   bands (ev):

     1.1285   2.0908  11.1978  12.8421

     occupation numbers 
     1.0000   1.0000   0.0000   0.0000

          k =-0.1572 0.3527-0.2738 (   504 PWs)   bands (ev):

     0.4832   3.0269  10.9279  13.1368

     occupation numbers 
     1.0000   1.0000   0.0000   0.0000

          k =-0.1550 0.3544-0.1839 (   503 PWs)   bands (ev):

    -0.2115   4.5508  10.0564  13.3903

     occupation numbers 
     1.0000   1.0000   0.0000   0.0000

          k =-0.1528 0.3560-0.0940 (   507 PWs)   bands (ev):

    -0.6488   6.2599   9.1143  12.4007

     occupation numbers 
     1.0000   1.0000   0.0000   0.0000

          k =-0.0810-0.6356-0.0134 (   506 PWs)   bands (ev):

     1.5149   4.4985  10.2677  11.6652

     occupation numbers 
     1.0000   1.0000   0.0000   0.0000

          k =-0.0788-0.6339 0.0766 (   505 PWs)   bands (ev):

     1.6587   4.4530   9.2904  12.8010

     occupation numbers 
     1.0000   1.0000   0.0000   0.0000

          k =-0.0766-0.6322 0.1665 (   505 PWs)   bands (ev):

     2.0644   4.3772   8.3164  11.7446

     occupation numbers 
     1.0000   1.0000   0.0000   0.0000

          k =-0.0744-0.6305 0.2564 (   497 PWs)   bands (ev):

     2.6835   4.0740   7.8679  10.2018

     occupation numbers 
     1.0000   1.0000   0.0000   0.0000

          k =-0.0898-0.6423-0.3730 (   497 PWs)   bands (ev):

     3.1676   3.7340   8.0768   9.2030

     occupation numbers 
     1.0000   1.0000   0.0000   0.0000

          k =-0.0876-0.6407-0.2831 (   494 PWs)   bands (ev):

     2.6111   4.2751   8.2656   9.4604

     occupation numbers 
     1.0000   1.0000   0.0000   0.0000

          k =-0.0854-0.6390-0.1932 (   501 PWs)   bands (ev):

     2.0251   4.5906   8.7321  10.7642

     occupation numbers 
     1.0000   1.0000   0.0000   0.0000

          k =-0.0832-0.6373-0.1033 (   504 PWs)   bands (ev):

     1.6423   4.5786   9.8007  11.6287

     occupation numbers 
     1.0000   1.0000   0.0000   0.0000

          k =-0.0909-0.4937-0.0120 (   503 PWs)   bands (ev):

     1.1513   4.9874   9.7965  11.4447

     occupation numbers 
     1.0000   1.0000   0.0000   0.0000

          k =-0.0887-0.4920 0.0779 (   505 PWs)   bands (ev):

     1.2249   5.0454   9.2523  12.3097

     occupation numbers 
     1.0000   1.0000   0.0000   0.0000

          k =-0.0865-0.4903 0.1678 (   501 PWs)   bands (ev):

     1.5661   4.9568   8.4934  11.1642

     occupation numbers 
     1.0000   1.0000   0.0000   0.0000

          k =-0.0843-0.4886 0.2577 (   499 PWs)   bands (ev):

     2.1415   4.4679   8.2471   9.8808

     occupation numbers 
     1.0000   1.0000   0.0000   0.0000

          k =-0.0997-0.5004-0.3717 (   498 PWs)   bands (ev):

     2.8088   3.7293   8.3151   9.3443

     occupation numbers 
     1.0000   1.0000   0.0000   0.0000

          k =-0.0975-0.4988-0.2818 (   501 PWs)   bands (ev):

     2.5254   3.9792   8.0194  10.1178

     occupation numbers 
     1.0000   1.0000   0.0000   0.0000

          k =-0.0953-0.4971-0.1919 (   502 PWs)   bands (ev):

     1.8420   4.5931   8.2183  11.1820

     occupation numbers 
     1.0000   1.0000   0.0000   0.0000

          k =-0.0931-0.4954-0.1019 (   499 PWs)   bands (ev):

     1.3626   4.8832   9.1013  11.3621

     occupation numbers 
     1.0000   1.0000   0.0000   0.0000

          k =-0.1009-0.3518-0.0107 (   510 PWs)   bands (ev):

    -1.0821   7.3497   8.5733  11.5495

     occupation numbers 
     1.0000   0.0000   0.0000   0.0000

          k =-0.0987-0.3501 0.0792 (   511 PWs)   bands (ev):

    -0.9980   6.4367   9.2363  12.3830

     occupation numbers 
     1.0000   1.0000   0.0000   0.0000

          k =-0.0965-0.3484 0.1691 (   509 PWs)   bands (ev):

    -0.6155   4.6981  10.2494  13.4047

     occupation numbers 
     1.0000   1.0000   0.0000   0.0000

          k =-0.0943-0.3467 0.2590 (   505 PWs)   bands (ev):

     0.0382   3.1055  11.1266  13.0642

     occupation numbers 
     1.0000   1.0000   0.0000   0.0000

          k =-0.1097-0.3585-0.3704 (   501 PWs)   bands (ev):

     0.8091   1.9366  11.6025  12.6560

     occupation numbers 
     1.0000   1.0000   0.0000   0.0000

          k =-0.1075-0.3569-0.2804 (   504 PWs)   bands (ev):

     0.3891   2.5270  11.0641  12.7783

     occupation numbers 
     1.0000   1.0000   0.0000   0.0000

          k =-0.1053-0.3552-0.1905 (   509 PWs)   bands (ev):

    -0.3628   4.0133  10.4150  12.2404

     occupation numbers 
     1.0000   1.0000   0.0000   0.0000

          k =-0.1031-0.3535-0.1006 (   515 PWs)   bands (ev):

    -0.8698   5.7421   9.6801  11.5945

     occupation numbers 
     1.0000   1.0000   0.0000   0.0000

          k =-0.1108-0.2099-0.0094 (   512 PWs)   bands (ev):

    -2.5812   5.6525  10.0803  13.7358

     occupation numbers 
     1.0000   1.0000   0.0000   0.0000

          k =-0.1086-0.2082 0.0805 (   509 PWs)   bands (ev):

    -2.4846   4.9109  11.1191  14.0312

     occupation numbers 
     1.0000   1.0000   0.0000   0.0000

          k =-0.1064-0.2065 0.1705 (   508 PWs)   bands (ev):

    -2.0860   3.2318  13.4262  14.7089

     occupation numbers 
     1.0000   1.0000   0.0000   0.0000

          k =-0.1042-0.2048 0.2604 (   508 PWs)   bands (ev):

    -1.4026   1.6154  14.9700  16.0133

     occupation numbers 
     1.0000   1.0000   0.0000   0.0000

          k =-0.1196-0.2166-0.3690 (   506 PWs)   bands (ev):

    -0.6217   0.4442  14.7785  16.0464

     occupation numbers 
     1.0000   1.0000   0.0000   0.0000

          k =-0.1174-0.2149-0.2791 (   507 PWs)   bands (ev):

    -1.1173   1.1433  13.9648  15.6831

     occupation numbers 
     1.0000   1.0000   0.0000   0.0000

          k =-0.1152-0.2133-0.1892 (   510 PWs)   bands (ev):

    -1.8801   2.6858  13.0259  14.6014

     occupation numbers 
     1.0000   1.0000   0.0000   0.0000

          k =-0.1130-0.2116-0.0993 (   511 PWs)   bands (ev):

    -2.3786   4.4177  11.3912  13.8380

     occupation numbers 
     1.0000   1.0000   0.0000   0.0000

     the Fermi energy is     6.9132 ev

!    total energy              =      -5.33203823 Ry
     estimated scf accuracy    <       0.01381087 Ry
     smearing contrib. (-TS)   =      -0.00002186 Ry
     internal energy E=F+TS    =      -5.33201637 Ry

     The total energy is F=E-TS. E is the sum of the following terms:
     one-electron contribution =       3.74292557 Ry
     hartree contribution      =       0.03841190 Ry
     xc contribution           =      -3.23254976 Ry
     ewald contribution        =      -5.88080407 Ry

     convergence has been achieved in   1 iterations

     Forces acting on atoms (cartesian axes, Ry/au):

     atom    1 type  1   force =    -0.02934262    0.01411325   -0.03628320
     atom    2 type  1   force =     0.02934262   -0.01411325    0.03628320
     The non-local contrib.  to forces
     atom    1 type  1   force =    -0.06580607    0.01860641   -0.11530206
     atom    2 type  1   force =     0.06582464   -0.01860078    0.11537783
     The ionic contribution  to forces
     atom    1 type  1   force =    -0.04997653    0.01028585   -0.18816984
     atom    2 type  1   force =     0.04997653   -0.01028585    0.18816984
     The local contribution  to forces
     atom    1 type  1   force =     0.08533202   -0.01329890    0.29523423
     atom    2 type  1   force =    -0.08531948    0.01330865   -0.29524126
     The core correction contribution to forces
     atom    1 type  1   force =     0.00363652   -0.00088613    0.00751586
     atom    2 type  1   force =    -0.00374175    0.00083692   -0.00758572
     The Hubbard contrib.    to forces
     atom    1 type  1   force =     0.00000000    0.00000000    0.00000000
     atom    2 type  1   force =     0.00000000    0.00000000    0.00000000
     The SCF correction term to forces
     atom    1 type  1   force =    -0.00258124   -0.00061497   -0.03555694
     atom    2 type  1   force =     0.00254997    0.00060682    0.03556696

     Total force =     0.068944     Total SCF correction =     0.050430
     SCF correction compared to forces is large: reduce conv_thr to get better values


     Computing stress (Cartesian axis) and pressure

          total   stress  (Ry/bohr**3)                   (kbar)     P=      -18.10
  -0.00079511  -0.00041728   0.00104208         -116.96      -61.38      153.29
  -0.00041728  -0.00100395   0.00016941          -61.38     -147.69       24.92
   0.00104208   0.00016941   0.00142987          153.29       24.92      210.34

     kinetic stress (kbar)   2337.54    -46.60    106.07
                              -46.60   2346.64     28.74
                              106.07     28.74   2563.42

     local   stress (kbar)    229.81    179.59    -87.05
                              179.59    211.74     -5.79
                              -87.05     -5.79    -22.17

     nonloc. stress (kbar)    811.97    -24.45     14.21
                              -24.45    808.96     -1.10
                               14.21     -1.10    868.91

     hartree stress (kbar)     30.18     -7.64     -3.24
                               -7.64     33.26     -1.40
                               -3.24     -1.40    -15.49

     exc-cor stress (kbar)    126.30     -2.41      1.71
                               -2.41    126.47      0.28
                                1.71      0.28    132.10

     corecor stress (kbar)  -1095.27      6.73     -5.70
                                6.73  -1095.54     -0.71
                               -5.70     -0.71  -1112.51

     ewald   stress (kbar)  -2557.49   -166.60    127.29
                             -166.60  -2579.20      4.91
                              127.29      4.91  -2203.93

     hubbard stress (kbar)      0.00      0.00      0.00
                                0.00      0.00      0.00
                                0.00      0.00      0.00

     DFT-D   stress (kbar)      0.00      0.00      0.00
                                0.00      0.00      0.00
                                0.00      0.00      0.00

     XDM     stress (kbar)      0.00      0.00      0.00
                                0.00      0.00      0.00
                                0.00      0.00      0.00

     dft-nl  stress (kbar)      0.00      0.00      0.00
                                0.00      0.00      0.00
                                0.00      0.00      0.00

     TS-vdW  stress (kbar)      0.00      0.00      0.00
                                0.00      0.00      0.00
                                0.00      0.00      0.00

     MDB     stress (kbar)      0.00      0.00      0.00
                                0.00      0.00      0.00
                                0.00      0.00      0.00

     3D-RISM stress (kbar)      0.00      0.00      0.00
                                0.00      0.00      0.00
                                0.00      0.00      0.00


     Writing all to output data dir ../tmp/Be/Be.save/ :
     XML data file, charge density, pseudopotentials, collected wavefunctions

     init_run     :      1.87s CPU      2.00s WALL (       1 calls)
     electrons    :      4.12s CPU      4.57s WALL (       1 calls)
     forces       :      0.13s CPU      0.13s WALL (       1 calls)
     stress       :      1.15s CPU      1.16s WALL (       1 calls)

     Called by init_run:
     wfcinit      :      1.37s CPU      1.46s WALL (       1 calls)
     wfcinit:atom :      0.05s CPU      0.05s WALL (     512 calls)
     wfcinit:wfcr :      1.08s CPU      1.15s WALL (     512 calls)
     potinit      :      0.03s CPU      0.03s WALL (       1 calls)
     hinit0       :      0.41s CPU      0.45s WALL (       1 calls)

     Called by electrons:
     c_bands      :      3.66s CPU      4.09s WALL (       2 calls)
     sum_band     :      0.45s CPU      0.46s WALL (       2 calls)
     v_of_rho     :      0.01s CPU      0.01s WALL (       2 calls)
     v_h          :      0.00s CPU      0.00s WALL (       2 calls)
     v_xc         :      0.01s CPU      0.02s WALL (       4 calls)
     newd         :      0.01s CPU      0.01s WALL (       2 calls)
     mix_rho      :      0.00s CPU      0.00s WALL (       2 calls)

     Called by c_bands:
     init_us_2    :      0.40s CPU      0.45s WALL (    3584 calls)
     cegterg      :      3.33s CPU      3.67s WALL (    1024 calls)

     Called by sum_band:
     sum_band:wei :      0.00s CPU      0.00s WALL (       2 calls)
     sum_band:loo :      0.44s CPU      0.45s WALL (       2 calls)
     sum_band:buf :      0.01s CPU      0.01s WALL (    1024 calls)
     sum_band:ini :      0.11s CPU      0.12s WALL (    1024 calls)
     sum_band:cal :      0.02s CPU      0.02s WALL (    1024 calls)
     sum_band:bec :      0.00s CPU      0.00s WALL (    1024 calls)
     addusdens    :      0.01s CPU      0.01s WALL (       2 calls)
                                        0.00s GPU  (       2 calls)
     addusd:skk   :      0.00s CPU      0.00s WALL (       2 calls)
                                        0.00s GPU  (       2 calls)

     Called by *egterg:
     cdiaghg      :      0.20s CPU      0.23s WALL (    4390 calls)
     cegterg:over :      0.07s CPU      0.09s WALL (    3878 calls)
     cegterg:upda :      0.09s CPU      0.10s WALL (    3878 calls)
     cegterg:last :      0.11s CPU      0.13s WALL (    2923 calls)
     h_psi        :      3.63s CPU      3.94s WALL (    5414 calls)
     s_psi        :      0.12s CPU      0.14s WALL (    5414 calls)
     g_psi        :      0.03s CPU      0.03s WALL (    3878 calls)

     Called by h_psi:
     h_psi:calbec :      0.13s CPU      0.15s WALL (    5414 calls)
     vloc_psi     :      3.31s CPU      3.58s WALL (    5414 calls)
     add_vuspsi   :      0.13s CPU      0.16s WALL (    5414 calls)

     General routines
     calbec       :      0.18s CPU      0.20s WALL (    8998 calls)
     fft          :      0.17s CPU      0.19s WALL (      48 calls)
     ffts         :      0.00s CPU      0.00s WALL (       2 calls)
     fftw         :      2.98s CPU      3.22s WALL (   40160 calls)


     PWSCF        :      7.41s CPU      8.05s WALL


   This run was terminated on:  18:49:47   6May2024            

=------------------------------------------------------------------------------=
   JOB DONE.
=------------------------------------------------------------------------------=
