
     Program PWSCF v.7.3.1 starts on  6May2024 at 18:49:52 

     This program is part of the open-source Quantum ESPRESSO suite
     for quantum simulation of materials; please cite
         "P. Giannozzi et al., J. Phys.:Condens. Matter 21 395502 (2009);
         "P. Giannozzi et al., J. Phys.:Condens. Matter 29 465901 (2017);
         "P. Giannozzi et al., J. Chem. Phys. 152 154105 (2020);
          URL http://www.quantum-espresso.org", 
     in publications or presentations arising from this work. More details at
     http://www.quantum-espresso.org/quote

     Serial version
     2173 MiB available memory on the printing compute node when the environment starts

     Reading input from Be2.pw.in

     Current dimensions of program PWSCF are:
     Max number of different atomic species (ntypx) = 10
     Max number of k-points (npk) =  40000
     Max angular momentum in pseudopotentials (lmaxx) =  4


     G-vector sticks info
     --------------------
     sticks:   dense  smooth     PW     G-vecs:    dense   smooth      PW
     Sum         187     187     73                 3527     3527     849

     Using Slab Decomposition



     bravais-lattice index     =            0
     lattice parameter (alat)  =       3.9548  a.u.
     unit-cell volume          =     103.2133 (a.u.)^3
     number of atoms/cell      =            2
     number of atomic types    =            1
     number of electrons       =         4.00
     number of Kohn-Sham states=            4
     kinetic-energy cutoff     =      40.0000  Ry
     charge density cutoff     =     160.0000  Ry
     scf convergence threshold =      2.0E-02
     mixing beta               =       0.1000
     number of iterations used =            8  plain     mixing
     Exchange-correlation= PBE
                           (   1   4   3   4   0   0   0)

     celldm(1)=   3.954813  celldm(2)=   0.000000  celldm(3)=   0.000000
     celldm(4)=   0.000000  celldm(5)=   0.000000  celldm(6)=   0.000000

     crystal axes: (cart. coord. in units of alat)
               a(1) = (   0.995999   0.008871   0.088921 )  
               a(2) = (  -0.514280   0.940431  -0.091932 )  
               a(3) = (  -0.017749   0.086246   1.767016 )  

     reciprocal axes: (cart. coord. in units 2 pi/alat)
               b(1) = (  1.000638  0.545583 -0.016578 )  
               b(2) = ( -0.004798  1.055677 -0.051575 )  
               b(3) = ( -0.050605  0.027468  0.564077 )  


     PseudoPot. # 1 for Be read from file:
     ../pseudo/Be.pbe-n-rrkjus_psl.1.0.0.UPF
     MD5 check sum: 734a25375992c446e1da9bf329ae4716
     Pseudo is Ultrasoft + core correction, Zval =  2.0
     Generated using &quot;atomic&quot; code by A. Dal Corso  v.6.6
     Using radial grid of 1041 points,  4 beta functions with: 
                l(1) =   0
                l(2) =   0
                l(3) =   1
                l(4) =   1
     Q(r) pseudized with 0 coefficients 


     atomic species   valence    mass     pseudopotential
     Be                2.00     9.01218     Be( 1.00)

     No symmetry found


                                    s                        frac. trans.

      isym =  1     identity                                     

 cryst.   s( 1) = (     1          0          0      )
                  (     0          1          0      )
                  (     0          0          1      )

 cart.    s( 1) = (  1.0000000  0.0000000  0.0000000 )
                  (  0.0000000  1.0000000  0.0000000 )
                  (  0.0000000 -0.0000000  1.0000000 )


   Cartesian axes

     site n.     atom                  positions (alat units)
         1        Be     tau(   1) = (   0.8375790   0.1533850   1.2794707  )
         2        Be     tau(   2) = (  -0.2976734   0.7817589   0.4263220  )

   Crystallographic axes

     site n.     atom                  positions (cryst. coord.)
         1        Be     tau(   1) = (  0.9005862  0.0919181  0.6835477  )
         2        Be     tau(   2) = (  0.1215839  0.8047255  0.2770154  )

     number of k points=   512  Fermi-Dirac smearing, width (Ry)=  0.0019
                       cart. coord. in units 2pi/alat
        k(    1) = (   0.0000000   0.0000000   0.0000000), wk =   0.0039062
        k(    2) = (  -0.0063256   0.0034335   0.0705096), wk =   0.0039062
        k(    3) = (  -0.0126512   0.0068670   0.1410192), wk =   0.0039062
        k(    4) = (  -0.0189767   0.0103005   0.2115289), wk =   0.0039062
        k(    5) = (   0.0253023  -0.0137340  -0.2820385), wk =   0.0039062
        k(    6) = (   0.0189767  -0.0103005  -0.2115289), wk =   0.0039062
        k(    7) = (   0.0126512  -0.0068670  -0.1410192), wk =   0.0039062
        k(    8) = (   0.0063256  -0.0034335  -0.0705096), wk =   0.0039062
        k(    9) = (  -0.0005998   0.1319596  -0.0064468), wk =   0.0039062
        k(   10) = (  -0.0069253   0.1353931   0.0640628), wk =   0.0039062
        k(   11) = (  -0.0132509   0.1388266   0.1345724), wk =   0.0039062
        k(   12) = (  -0.0195765   0.1422601   0.2050820), wk =   0.0039062
        k(   13) = (   0.0247026   0.1182256  -0.2884853), wk =   0.0039062
        k(   14) = (   0.0183770   0.1216591  -0.2179757), wk =   0.0039062
        k(   15) = (   0.0120514   0.1250926  -0.1474661), wk =   0.0039062
        k(   16) = (   0.0057258   0.1285261  -0.0769564), wk =   0.0039062
        k(   17) = (  -0.0011995   0.2639192  -0.0128936), wk =   0.0039062
        k(   18) = (  -0.0075251   0.2673527   0.0576160), wk =   0.0039062
        k(   19) = (  -0.0138507   0.2707861   0.1281256), wk =   0.0039062
        k(   20) = (  -0.0201763   0.2742196   0.1986352), wk =   0.0039062
        k(   21) = (   0.0241028   0.2501852  -0.2949321), wk =   0.0039062
        k(   22) = (   0.0177772   0.2536187  -0.2244225), wk =   0.0039062
        k(   23) = (   0.0114517   0.2570522  -0.1539129), wk =   0.0039062
        k(   24) = (   0.0051261   0.2604857  -0.0834033), wk =   0.0039062
        k(   25) = (  -0.0017993   0.3958787  -0.0193405), wk =   0.0039062
        k(   26) = (  -0.0081248   0.3993122   0.0511692), wk =   0.0039062
        k(   27) = (  -0.0144504   0.4027457   0.1216788), wk =   0.0039062
        k(   28) = (  -0.0207760   0.4061792   0.1921884), wk =   0.0039062
        k(   29) = (   0.0235031   0.3821448  -0.3013789), wk =   0.0039062
        k(   30) = (   0.0171775   0.3855783  -0.2308693), wk =   0.0039062
        k(   31) = (   0.0108519   0.3890117  -0.1603597), wk =   0.0039062
        k(   32) = (   0.0045263   0.3924452  -0.0898501), wk =   0.0039062
        k(   33) = (   0.0023990  -0.5278383   0.0257873), wk =   0.0039062
        k(   34) = (  -0.0039266  -0.5244048   0.0962969), wk =   0.0039062
        k(   35) = (  -0.0102521  -0.5209713   0.1668065), wk =   0.0039062
        k(   36) = (  -0.0165777  -0.5175378   0.2373161), wk =   0.0039062
        k(   37) = (   0.0277014  -0.5415723  -0.2562512), wk =   0.0039062
        k(   38) = (   0.0213758  -0.5381388  -0.1857416), wk =   0.0039062
        k(   39) = (   0.0150502  -0.5347053  -0.1152320), wk =   0.0039062
        k(   40) = (   0.0087246  -0.5312718  -0.0447223), wk =   0.0039062
        k(   41) = (   0.0017993  -0.3958787   0.0193405), wk =   0.0039062
        k(   42) = (  -0.0045263  -0.3924452   0.0898501), wk =   0.0039062
        k(   43) = (  -0.0108519  -0.3890117   0.1603597), wk =   0.0039062
        k(   44) = (  -0.0171775  -0.3855783   0.2308693), wk =   0.0039062
        k(   45) = (   0.0271016  -0.4096127  -0.2626980), wk =   0.0039062
        k(   46) = (   0.0207760  -0.4061792  -0.1921884), wk =   0.0039062
        k(   47) = (   0.0144504  -0.4027457  -0.1216788), wk =   0.0039062
        k(   48) = (   0.0081248  -0.3993122  -0.0511692), wk =   0.0039062
        k(   49) = (   0.0011995  -0.2639192   0.0128936), wk =   0.0039062
        k(   50) = (  -0.0051261  -0.2604857   0.0834033), wk =   0.0039062
        k(   51) = (  -0.0114517  -0.2570522   0.1539129), wk =   0.0039062
        k(   52) = (  -0.0177772  -0.2536187   0.2244225), wk =   0.0039062
        k(   53) = (   0.0265018  -0.2776531  -0.2691448), wk =   0.0039062
        k(   54) = (   0.0201763  -0.2742196  -0.1986352), wk =   0.0039062
        k(   55) = (   0.0138507  -0.2707861  -0.1281256), wk =   0.0039062
        k(   56) = (   0.0075251  -0.2673527  -0.0576160), wk =   0.0039062
        k(   57) = (   0.0005998  -0.1319596   0.0064468), wk =   0.0039062
        k(   58) = (  -0.0057258  -0.1285261   0.0769564), wk =   0.0039062
        k(   59) = (  -0.0120514  -0.1250926   0.1474661), wk =   0.0039062
        k(   60) = (  -0.0183770  -0.1216591   0.2179757), wk =   0.0039062
        k(   61) = (   0.0259021  -0.1456936  -0.2755917), wk =   0.0039062
        k(   62) = (   0.0195765  -0.1422601  -0.2050820), wk =   0.0039062
        k(   63) = (   0.0132509  -0.1388266  -0.1345724), wk =   0.0039062
        k(   64) = (   0.0069253  -0.1353931  -0.0640628), wk =   0.0039062
        k(   65) = (   0.1250797   0.0681979  -0.0020723), wk =   0.0039062
        k(   66) = (   0.1187541   0.0716314   0.0684374), wk =   0.0039062
        k(   67) = (   0.1124285   0.0750649   0.1389470), wk =   0.0039062
        k(   68) = (   0.1061030   0.0784984   0.2094566), wk =   0.0039062
        k(   69) = (   0.1503820   0.0544640  -0.2841107), wk =   0.0039062
        k(   70) = (   0.1440565   0.0578975  -0.2136011), wk =   0.0039062
        k(   71) = (   0.1377309   0.0613309  -0.1430915), wk =   0.0039062
        k(   72) = (   0.1314053   0.0647644  -0.0725819), wk =   0.0039062
        k(   73) = (   0.1244800   0.2001575  -0.0085191), wk =   0.0039062
        k(   74) = (   0.1181544   0.2035910   0.0619905), wk =   0.0039062
        k(   75) = (   0.1118288   0.2070245   0.1325002), wk =   0.0039062
        k(   76) = (   0.1055032   0.2104580   0.2030098), wk =   0.0039062
        k(   77) = (   0.1497823   0.1864235  -0.2905576), wk =   0.0039062
        k(   78) = (   0.1434567   0.1898570  -0.2200479), wk =   0.0039062
        k(   79) = (   0.1371311   0.1932905  -0.1495383), wk =   0.0039062
        k(   80) = (   0.1308055   0.1967240  -0.0790287), wk =   0.0039062
        k(   81) = (   0.1238802   0.3321171  -0.0149659), wk =   0.0039062
        k(   82) = (   0.1175546   0.3355506   0.0555437), wk =   0.0039062
        k(   83) = (   0.1112290   0.3389841   0.1260533), wk =   0.0039062
        k(   84) = (   0.1049035   0.3424176   0.1965630), wk =   0.0039062
        k(   85) = (   0.1491825   0.3183831  -0.2970044), wk =   0.0039062
        k(   86) = (   0.1428569   0.3218166  -0.2264948), wk =   0.0039062
        k(   87) = (   0.1365314   0.3252501  -0.1559851), wk =   0.0039062
        k(   88) = (   0.1302058   0.3286836  -0.0854755), wk =   0.0039062
        k(   89) = (   0.1232804   0.4640767  -0.0214127), wk =   0.0039062
        k(   90) = (   0.1169549   0.4675102   0.0490969), wk =   0.0039062
        k(   91) = (   0.1106293   0.4709437   0.1196065), wk =   0.0039062
        k(   92) = (   0.1043037   0.4743772   0.1901161), wk =   0.0039062
        k(   93) = (   0.1485828   0.4503427  -0.3034512), wk =   0.0039062
        k(   94) = (   0.1422572   0.4537762  -0.2329416), wk =   0.0039062
        k(   95) = (   0.1359316   0.4572097  -0.1624320), wk =   0.0039062
        k(   96) = (   0.1296060   0.4606432  -0.0919223), wk =   0.0039062
        k(   97) = (   0.1274787  -0.4596404   0.0237150), wk =   0.0039062
        k(   98) = (   0.1211531  -0.4562069   0.0942246), wk =   0.0039062
        k(   99) = (   0.1148276  -0.4527734   0.1647343), wk =   0.0039062
        k(  100) = (   0.1085020  -0.4493399   0.2352439), wk =   0.0039062
        k(  101) = (   0.1527811  -0.4733744  -0.2583235), wk =   0.0039062
        k(  102) = (   0.1464555  -0.4699409  -0.1878139), wk =   0.0039062
        k(  103) = (   0.1401299  -0.4665074  -0.1173042), wk =   0.0039062
        k(  104) = (   0.1338043  -0.4630739  -0.0467946), wk =   0.0039062
        k(  105) = (   0.1268790  -0.3276808   0.0172682), wk =   0.0039062
        k(  106) = (   0.1205534  -0.3242473   0.0877778), wk =   0.0039062
        k(  107) = (   0.1142278  -0.3208138   0.1582874), wk =   0.0039062
        k(  108) = (   0.1079022  -0.3173803   0.2287971), wk =   0.0039062
        k(  109) = (   0.1521813  -0.3414148  -0.2647703), wk =   0.0039062
        k(  110) = (   0.1458557  -0.3379813  -0.1942607), wk =   0.0039062
        k(  111) = (   0.1395301  -0.3345478  -0.1237511), wk =   0.0039062
        k(  112) = (   0.1332046  -0.3311143  -0.0532414), wk =   0.0039062
        k(  113) = (   0.1262792  -0.1957212   0.0108214), wk =   0.0039062
        k(  114) = (   0.1199536  -0.1922877   0.0813310), wk =   0.0039062
        k(  115) = (   0.1136281  -0.1888542   0.1518406), wk =   0.0039062
        k(  116) = (   0.1073025  -0.1854207   0.2223502), wk =   0.0039062
        k(  117) = (   0.1515816  -0.2094552  -0.2712171), wk =   0.0039062
        k(  118) = (   0.1452560  -0.2060217  -0.2007075), wk =   0.0039062
        k(  119) = (   0.1389304  -0.2025882  -0.1301979), wk =   0.0039062
        k(  120) = (   0.1326048  -0.1991547  -0.0596882), wk =   0.0039062
        k(  121) = (   0.1256795  -0.0637616   0.0043746), wk =   0.0039062
        k(  122) = (   0.1193539  -0.0603281   0.0748842), wk =   0.0039062
        k(  123) = (   0.1130283  -0.0568947   0.1453938), wk =   0.0039062
        k(  124) = (   0.1067027  -0.0534612   0.2159034), wk =   0.0039062
        k(  125) = (   0.1509818  -0.0774956  -0.2776639), wk =   0.0039062
        k(  126) = (   0.1446562  -0.0740621  -0.2071543), wk =   0.0039062
        k(  127) = (   0.1383306  -0.0706286  -0.1366447), wk =   0.0039062
        k(  128) = (   0.1320050  -0.0671951  -0.0661351), wk =   0.0039062
        k(  129) = (   0.2501594   0.1363959  -0.0041445), wk =   0.0039062
        k(  130) = (   0.2438338   0.1398294   0.0663651), wk =   0.0039062
        k(  131) = (   0.2375083   0.1432629   0.1368747), wk =   0.0039062
        k(  132) = (   0.2311827   0.1466964   0.2073843), wk =   0.0039062
        k(  133) = (   0.2754618   0.1226619  -0.2861830), wk =   0.0039062
        k(  134) = (   0.2691362   0.1260954  -0.2156734), wk =   0.0039062
        k(  135) = (   0.2628106   0.1295289  -0.1451638), wk =   0.0039062
        k(  136) = (   0.2564850   0.1329624  -0.0746541), wk =   0.0039062
        k(  137) = (   0.2495597   0.2683555  -0.0105913), wk =   0.0039062
        k(  138) = (   0.2432341   0.2717889   0.0599183), wk =   0.0039062
        k(  139) = (   0.2369085   0.2752224   0.1304279), wk =   0.0039062
        k(  140) = (   0.2305829   0.2786559   0.2009375), wk =   0.0039062
        k(  141) = (   0.2748620   0.2546215  -0.2926298), wk =   0.0039062
        k(  142) = (   0.2685364   0.2580550  -0.2221202), wk =   0.0039062
        k(  143) = (   0.2622108   0.2614885  -0.1516106), wk =   0.0039062
        k(  144) = (   0.2558852   0.2649220  -0.0811010), wk =   0.0039062
        k(  145) = (   0.2489599   0.4003150  -0.0170382), wk =   0.0039062
        k(  146) = (   0.2426343   0.4037485   0.0534715), wk =   0.0039062
        k(  147) = (   0.2363087   0.4071820   0.1239811), wk =   0.0039062
        k(  148) = (   0.2299832   0.4106155   0.1944907), wk =   0.0039062
        k(  149) = (   0.2742622   0.3865811  -0.2990767), wk =   0.0039062
        k(  150) = (   0.2679367   0.3900145  -0.2285670), wk =   0.0039062
        k(  151) = (   0.2616111   0.3934480  -0.1580574), wk =   0.0039062
        k(  152) = (   0.2552855   0.3968815  -0.0875478), wk =   0.0039062
        k(  153) = (   0.2483602   0.5322746  -0.0234850), wk =   0.0039062
        k(  154) = (   0.2420346   0.5357081   0.0470246), wk =   0.0039062
        k(  155) = (   0.2357090   0.5391416   0.1175343), wk =   0.0039062
        k(  156) = (   0.2293834   0.5425751   0.1880439), wk =   0.0039062
        k(  157) = (   0.2736625   0.5185406  -0.3055235), wk =   0.0039062
        k(  158) = (   0.2673369   0.5219741  -0.2350138), wk =   0.0039062
        k(  159) = (   0.2610113   0.5254076  -0.1645042), wk =   0.0039062
        k(  160) = (   0.2546857   0.5288411  -0.0939946), wk =   0.0039062
        k(  161) = (   0.2525584  -0.3914424   0.0216427), wk =   0.0039062
        k(  162) = (   0.2462329  -0.3880089   0.0921524), wk =   0.0039062
        k(  163) = (   0.2399073  -0.3845755   0.1626620), wk =   0.0039062
        k(  164) = (   0.2335817  -0.3811420   0.2331716), wk =   0.0039062
        k(  165) = (   0.2778608  -0.4051764  -0.2603957), wk =   0.0039062
        k(  166) = (   0.2715352  -0.4017429  -0.1898861), wk =   0.0039062
        k(  167) = (   0.2652096  -0.3983094  -0.1193765), wk =   0.0039062
        k(  168) = (   0.2588840  -0.3948759  -0.0488669), wk =   0.0039062
        k(  169) = (   0.2519587  -0.2594829   0.0151959), wk =   0.0039062
        k(  170) = (   0.2456331  -0.2560494   0.0857055), wk =   0.0039062
        k(  171) = (   0.2393075  -0.2526159   0.1562152), wk =   0.0039062
        k(  172) = (   0.2329819  -0.2491824   0.2267248), wk =   0.0039062
        k(  173) = (   0.2772610  -0.2732168  -0.2668426), wk =   0.0039062
        k(  174) = (   0.2709354  -0.2697833  -0.1963329), wk =   0.0039062
        k(  175) = (   0.2646099  -0.2663499  -0.1258233), wk =   0.0039062
        k(  176) = (   0.2582843  -0.2629164  -0.0553137), wk =   0.0039062
        k(  177) = (   0.2513589  -0.1275233   0.0087491), wk =   0.0039062
        k(  178) = (   0.2450333  -0.1240898   0.0792587), wk =   0.0039062
        k(  179) = (   0.2387078  -0.1206563   0.1497684), wk =   0.0039062
        k(  180) = (   0.2323822  -0.1172228   0.2202780), wk =   0.0039062
        k(  181) = (   0.2766613  -0.1412573  -0.2732894), wk =   0.0039062
        k(  182) = (   0.2703357  -0.1378238  -0.2027798), wk =   0.0039062
        k(  183) = (   0.2640101  -0.1343903  -0.1322701), wk =   0.0039062
        k(  184) = (   0.2576845  -0.1309568  -0.0617605), wk =   0.0039062
        k(  185) = (   0.2507592   0.0044363   0.0023023), wk =   0.0039062
        k(  186) = (   0.2444336   0.0078698   0.0728119), wk =   0.0039062
        k(  187) = (   0.2381080   0.0113033   0.1433215), wk =   0.0039062
        k(  188) = (   0.2317824   0.0147368   0.2138312), wk =   0.0039062
        k(  189) = (   0.2760615  -0.0092977  -0.2797362), wk =   0.0039062
        k(  190) = (   0.2697359  -0.0058642  -0.2092266), wk =   0.0039062
        k(  191) = (   0.2634103  -0.0024307  -0.1387170), wk =   0.0039062
        k(  192) = (   0.2570848   0.0010028  -0.0682073), wk =   0.0039062
        k(  193) = (   0.3752391   0.2045938  -0.0062168), wk =   0.0039062
        k(  194) = (   0.3689135   0.2080273   0.0642928), wk =   0.0039062
        k(  195) = (   0.3625880   0.2114608   0.1348024), wk =   0.0039062
        k(  196) = (   0.3562624   0.2148943   0.2053121), wk =   0.0039062
        k(  197) = (   0.4005415   0.1908598  -0.2882553), wk =   0.0039062
        k(  198) = (   0.3942159   0.1942933  -0.2177457), wk =   0.0039062
        k(  199) = (   0.3878903   0.1977268  -0.1472360), wk =   0.0039062
        k(  200) = (   0.3815647   0.2011603  -0.0767264), wk =   0.0039062
        k(  201) = (   0.3746394   0.3365534  -0.0126636), wk =   0.0039062
        k(  202) = (   0.3683138   0.3399869   0.0578460), wk =   0.0039062
        k(  203) = (   0.3619882   0.3434204   0.1283556), wk =   0.0039062
        k(  204) = (   0.3556626   0.3468539   0.1988653), wk =   0.0039062
        k(  205) = (   0.3999417   0.3228194  -0.2947021), wk =   0.0039062
        k(  206) = (   0.3936161   0.3262529  -0.2241925), wk =   0.0039062
        k(  207) = (   0.3872905   0.3296864  -0.1536829), wk =   0.0039062
        k(  208) = (   0.3809650   0.3331199  -0.0831732), wk =   0.0039062
        k(  209) = (   0.3740396   0.4685130  -0.0191104), wk =   0.0039062
        k(  210) = (   0.3677140   0.4719465   0.0513992), wk =   0.0039062
        k(  211) = (   0.3613885   0.4753800   0.1219088), wk =   0.0039062
        k(  212) = (   0.3550629   0.4788134   0.1924184), wk =   0.0039062
        k(  213) = (   0.3993420   0.4547790  -0.3011489), wk =   0.0039062
        k(  214) = (   0.3930164   0.4582125  -0.2306393), wk =   0.0039062
        k(  215) = (   0.3866908   0.4616460  -0.1601297), wk =   0.0039062
        k(  216) = (   0.3803652   0.4650795  -0.0896201), wk =   0.0039062
        k(  217) = (   0.3734399   0.6004725  -0.0255572), wk =   0.0039062
        k(  218) = (   0.3671143   0.6039060   0.0449524), wk =   0.0039062
        k(  219) = (   0.3607887   0.6073395   0.1154620), wk =   0.0039062
        k(  220) = (   0.3544631   0.6107730   0.1859716), wk =   0.0039062
        k(  221) = (   0.3987422   0.5867386  -0.3075957), wk =   0.0039062
        k(  222) = (   0.3924166   0.5901721  -0.2370861), wk =   0.0039062
        k(  223) = (   0.3860910   0.5936056  -0.1665765), wk =   0.0039062
        k(  224) = (   0.3797654   0.5970390  -0.0960669), wk =   0.0039062
        k(  225) = (   0.3776382  -0.3232445   0.0195705), wk =   0.0039062
        k(  226) = (   0.3713126  -0.3198110   0.0900801), wk =   0.0039062
        k(  227) = (   0.3649870  -0.3163775   0.1605897), wk =   0.0039062
        k(  228) = (   0.3586614  -0.3129440   0.2310993), wk =   0.0039062
        k(  229) = (   0.4029405  -0.3369785  -0.2624680), wk =   0.0039062
        k(  230) = (   0.3966149  -0.3335450  -0.1919584), wk =   0.0039062
        k(  231) = (   0.3902893  -0.3301115  -0.1214488), wk =   0.0039062
        k(  232) = (   0.3839637  -0.3266780  -0.0509391), wk =   0.0039062
        k(  233) = (   0.3770384  -0.1912849   0.0131237), wk =   0.0039062
        k(  234) = (   0.3707128  -0.1878514   0.0836333), wk =   0.0039062
        k(  235) = (   0.3643872  -0.1844179   0.1541429), wk =   0.0039062
        k(  236) = (   0.3580616  -0.1809844   0.2246525), wk =   0.0039062
        k(  237) = (   0.4023407  -0.2050189  -0.2689148), wk =   0.0039062
        k(  238) = (   0.3960151  -0.2015854  -0.1984052), wk =   0.0039062
        k(  239) = (   0.3896896  -0.1981519  -0.1278956), wk =   0.0039062
        k(  240) = (   0.3833640  -0.1947184  -0.0573860), wk =   0.0039062
        k(  241) = (   0.3764386  -0.0593254   0.0066768), wk =   0.0039062
        k(  242) = (   0.3701131  -0.0558919   0.0771865), wk =   0.0039062
        k(  243) = (   0.3637875  -0.0524584   0.1476961), wk =   0.0039062
        k(  244) = (   0.3574619  -0.0490249   0.2182057), wk =   0.0039062
        k(  245) = (   0.4017410  -0.0730593  -0.2753616), wk =   0.0039062
        k(  246) = (   0.3954154  -0.0696258  -0.2048520), wk =   0.0039062
        k(  247) = (   0.3890898  -0.0661923  -0.1343424), wk =   0.0039062
        k(  248) = (   0.3827642  -0.0627588  -0.0638328), wk =   0.0039062
        k(  249) = (   0.3758389   0.0726342   0.0002300), wk =   0.0039062
        k(  250) = (   0.3695133   0.0760677   0.0707396), wk =   0.0039062
        k(  251) = (   0.3631877   0.0795012   0.1412493), wk =   0.0039062
        k(  252) = (   0.3568621   0.0829347   0.2117589), wk =   0.0039062
        k(  253) = (   0.4011412   0.0589003  -0.2818085), wk =   0.0039062
        k(  254) = (   0.3948156   0.0623337  -0.2112988), wk =   0.0039062
        k(  255) = (   0.3884901   0.0657672  -0.1407892), wk =   0.0039062
        k(  256) = (   0.3821645   0.0692007  -0.0702796), wk =   0.0039062
        k(  257) = (  -0.5003188  -0.2727917   0.0082891), wk =   0.0039062
        k(  258) = (  -0.5066444  -0.2693582   0.0787987), wk =   0.0039062
        k(  259) = (  -0.5129700  -0.2659248   0.1493083), wk =   0.0039062
        k(  260) = (  -0.5192956  -0.2624913   0.2198179), wk =   0.0039062
        k(  261) = (  -0.4750165  -0.2865257  -0.2737494), wk =   0.0039062
        k(  262) = (  -0.4813421  -0.2830922  -0.2032398), wk =   0.0039062
        k(  263) = (  -0.4876677  -0.2796587  -0.1327302), wk =   0.0039062
        k(  264) = (  -0.4939933  -0.2762252  -0.0622206), wk =   0.0039062
        k(  265) = (  -0.5009186  -0.1408322   0.0018422), wk =   0.0039062
        k(  266) = (  -0.5072442  -0.1373987   0.0723519), wk =   0.0039062
        k(  267) = (  -0.5135698  -0.1339652   0.1428615), wk =   0.0039062
        k(  268) = (  -0.5198953  -0.1305317   0.2133711), wk =   0.0039062
        k(  269) = (  -0.4756163  -0.1545661  -0.2801962), wk =   0.0039062
        k(  270) = (  -0.4819418  -0.1511326  -0.2096866), wk =   0.0039062
        k(  271) = (  -0.4882674  -0.1476992  -0.1391770), wk =   0.0039062
        k(  272) = (  -0.4945930  -0.1442657  -0.0686674), wk =   0.0039062
        k(  273) = (  -0.5015184  -0.0088726  -0.0046046), wk =   0.0039062
        k(  274) = (  -0.5078439  -0.0054391   0.0659050), wk =   0.0039062
        k(  275) = (  -0.5141695  -0.0020056   0.1364147), wk =   0.0039062
        k(  276) = (  -0.5204951   0.0014279   0.2069243), wk =   0.0039062
        k(  277) = (  -0.4762160  -0.0226066  -0.2866431), wk =   0.0039062
        k(  278) = (  -0.4825416  -0.0191731  -0.2161334), wk =   0.0039062
        k(  279) = (  -0.4888672  -0.0157396  -0.1456238), wk =   0.0039062
        k(  280) = (  -0.4951928  -0.0123061  -0.0751142), wk =   0.0039062
        k(  281) = (  -0.5021181   0.1230870  -0.0110514), wk =   0.0039062
        k(  282) = (  -0.5084437   0.1265205   0.0594582), wk =   0.0039062
        k(  283) = (  -0.5147693   0.1299540   0.1299678), wk =   0.0039062
        k(  284) = (  -0.5210949   0.1333875   0.2004775), wk =   0.0039062
        k(  285) = (  -0.4768158   0.1093530  -0.2930899), wk =   0.0039062
        k(  286) = (  -0.4831414   0.1127865  -0.2225803), wk =   0.0039062
        k(  287) = (  -0.4894669   0.1162200  -0.1520706), wk =   0.0039062
        k(  288) = (  -0.4957925   0.1196535  -0.0815610), wk =   0.0039062
        k(  289) = (  -0.4979198  -0.8006301   0.0340763), wk =   0.0039062
        k(  290) = (  -0.5042454  -0.7971966   0.1045860), wk =   0.0039062
        k(  291) = (  -0.5105710  -0.7937631   0.1750956), wk =   0.0039062
        k(  292) = (  -0.5168966  -0.7903296   0.2456052), wk =   0.0039062
        k(  293) = (  -0.4726175  -0.8143640  -0.2479622), wk =   0.0039062
        k(  294) = (  -0.4789431  -0.8109305  -0.1774525), wk =   0.0039062
        k(  295) = (  -0.4852687  -0.8074970  -0.1069429), wk =   0.0039062
        k(  296) = (  -0.4915942  -0.8040636  -0.0364333), wk =   0.0039062
        k(  297) = (  -0.4985196  -0.6686705   0.0276295), wk =   0.0039062
        k(  298) = (  -0.5048452  -0.6652370   0.0981391), wk =   0.0039062
        k(  299) = (  -0.5111707  -0.6618035   0.1686488), wk =   0.0039062
        k(  300) = (  -0.5174963  -0.6583700   0.2391584), wk =   0.0039062
        k(  301) = (  -0.4732172  -0.6824045  -0.2544090), wk =   0.0039062
        k(  302) = (  -0.4795428  -0.6789710  -0.1838994), wk =   0.0039062
        k(  303) = (  -0.4858684  -0.6755375  -0.1133897), wk =   0.0039062
        k(  304) = (  -0.4921940  -0.6721040  -0.0428801), wk =   0.0039062
        k(  305) = (  -0.4991193  -0.5367109   0.0211827), wk =   0.0039062
        k(  306) = (  -0.5054449  -0.5332774   0.0916923), wk =   0.0039062
        k(  307) = (  -0.5117705  -0.5298439   0.1622019), wk =   0.0039062
        k(  308) = (  -0.5180961  -0.5264104   0.2327116), wk =   0.0039062
        k(  309) = (  -0.4738170  -0.5504449  -0.2608558), wk =   0.0039062
        k(  310) = (  -0.4801426  -0.5470114  -0.1903462), wk =   0.0039062
        k(  311) = (  -0.4864682  -0.5435779  -0.1198365), wk =   0.0039062
        k(  312) = (  -0.4927937  -0.5401444  -0.0493269), wk =   0.0039062
        k(  313) = (  -0.4997191  -0.4047513   0.0147359), wk =   0.0039062
        k(  314) = (  -0.5060447  -0.4013178   0.0852455), wk =   0.0039062
        k(  315) = (  -0.5123703  -0.3978843   0.1557551), wk =   0.0039062
        k(  316) = (  -0.5186958  -0.3944508   0.2262647), wk =   0.0039062
        k(  317) = (  -0.4744168  -0.4184853  -0.2673026), wk =   0.0039062
        k(  318) = (  -0.4807423  -0.4150518  -0.1967930), wk =   0.0039062
        k(  319) = (  -0.4870679  -0.4116183  -0.1262834), wk =   0.0039062
        k(  320) = (  -0.4933935  -0.4081848  -0.0557737), wk =   0.0039062
        k(  321) = (  -0.3752391  -0.2045938   0.0062168), wk =   0.0039062
        k(  322) = (  -0.3815647  -0.2011603   0.0767264), wk =   0.0039062
        k(  323) = (  -0.3878903  -0.1977268   0.1472360), wk =   0.0039062
        k(  324) = (  -0.3942159  -0.1942933   0.2177457), wk =   0.0039062
        k(  325) = (  -0.3499368  -0.2183278  -0.2758217), wk =   0.0039062
        k(  326) = (  -0.3562624  -0.2148943  -0.2053121), wk =   0.0039062
        k(  327) = (  -0.3625880  -0.2114608  -0.1348024), wk =   0.0039062
        k(  328) = (  -0.3689135  -0.2080273  -0.0642928), wk =   0.0039062
        k(  329) = (  -0.3758389  -0.0726342  -0.0002300), wk =   0.0039062
        k(  330) = (  -0.3821645  -0.0692007   0.0702796), wk =   0.0039062
        k(  331) = (  -0.3884901  -0.0657672   0.1407892), wk =   0.0039062
        k(  332) = (  -0.3948156  -0.0623337   0.2112988), wk =   0.0039062
        k(  333) = (  -0.3505366  -0.0863682  -0.2822685), wk =   0.0039062
        k(  334) = (  -0.3568621  -0.0829347  -0.2117589), wk =   0.0039062
        k(  335) = (  -0.3631877  -0.0795012  -0.1412493), wk =   0.0039062
        k(  336) = (  -0.3695133  -0.0760677  -0.0707396), wk =   0.0039062
        k(  337) = (  -0.3764386   0.0593254  -0.0066768), wk =   0.0039062
        k(  338) = (  -0.3827642   0.0627588   0.0638328), wk =   0.0039062
        k(  339) = (  -0.3890898   0.0661923   0.1343424), wk =   0.0039062
        k(  340) = (  -0.3954154   0.0696258   0.2048520), wk =   0.0039062
        k(  341) = (  -0.3511363   0.0455914  -0.2887153), wk =   0.0039062
        k(  342) = (  -0.3574619   0.0490249  -0.2182057), wk =   0.0039062
        k(  343) = (  -0.3637875   0.0524584  -0.1476961), wk =   0.0039062
        k(  344) = (  -0.3701131   0.0558919  -0.0771865), wk =   0.0039062
        k(  345) = (  -0.3770384   0.1912849  -0.0131237), wk =   0.0039062
        k(  346) = (  -0.3833640   0.1947184   0.0573860), wk =   0.0039062
        k(  347) = (  -0.3896896   0.1981519   0.1278956), wk =   0.0039062
        k(  348) = (  -0.3960151   0.2015854   0.1984052), wk =   0.0039062
        k(  349) = (  -0.3517361   0.1775510  -0.2951621), wk =   0.0039062
        k(  350) = (  -0.3580616   0.1809844  -0.2246525), wk =   0.0039062
        k(  351) = (  -0.3643872   0.1844179  -0.1541429), wk =   0.0039062
        k(  352) = (  -0.3707128   0.1878514  -0.0836333), wk =   0.0039062
        k(  353) = (  -0.3728401  -0.7324321   0.0320041), wk =   0.0039062
        k(  354) = (  -0.3791657  -0.7289986   0.1025137), wk =   0.0039062
        k(  355) = (  -0.3854913  -0.7255651   0.1730233), wk =   0.0039062
        k(  356) = (  -0.3918169  -0.7221316   0.2435329), wk =   0.0039062
        k(  357) = (  -0.3475378  -0.7461661  -0.2500344), wk =   0.0039062
        k(  358) = (  -0.3538634  -0.7427326  -0.1795248), wk =   0.0039062
        k(  359) = (  -0.3601889  -0.7392991  -0.1090152), wk =   0.0039062
        k(  360) = (  -0.3665145  -0.7358656  -0.0385056), wk =   0.0039062
        k(  361) = (  -0.3734399  -0.6004725   0.0255572), wk =   0.0039062
        k(  362) = (  -0.3797654  -0.5970390   0.0960669), wk =   0.0039062
        k(  363) = (  -0.3860910  -0.5936056   0.1665765), wk =   0.0039062
        k(  364) = (  -0.3924166  -0.5901721   0.2370861), wk =   0.0039062
        k(  365) = (  -0.3481375  -0.6142065  -0.2564812), wk =   0.0039062
        k(  366) = (  -0.3544631  -0.6107730  -0.1859716), wk =   0.0039062
        k(  367) = (  -0.3607887  -0.6073395  -0.1154620), wk =   0.0039062
        k(  368) = (  -0.3671143  -0.6039060  -0.0449524), wk =   0.0039062
        k(  369) = (  -0.3740396  -0.4685130   0.0191104), wk =   0.0039062
        k(  370) = (  -0.3803652  -0.4650795   0.0896201), wk =   0.0039062
        k(  371) = (  -0.3866908  -0.4616460   0.1601297), wk =   0.0039062
        k(  372) = (  -0.3930164  -0.4582125   0.2306393), wk =   0.0039062
        k(  373) = (  -0.3487373  -0.4822469  -0.2629281), wk =   0.0039062
        k(  374) = (  -0.3550629  -0.4788134  -0.1924184), wk =   0.0039062
        k(  375) = (  -0.3613885  -0.4753800  -0.1219088), wk =   0.0039062
        k(  376) = (  -0.3677140  -0.4719465  -0.0513992), wk =   0.0039062
        k(  377) = (  -0.3746394  -0.3365534   0.0126636), wk =   0.0039062
        k(  378) = (  -0.3809650  -0.3331199   0.0831732), wk =   0.0039062
        k(  379) = (  -0.3872905  -0.3296864   0.1536829), wk =   0.0039062
        k(  380) = (  -0.3936161  -0.3262529   0.2241925), wk =   0.0039062
        k(  381) = (  -0.3493370  -0.3502874  -0.2693749), wk =   0.0039062
        k(  382) = (  -0.3556626  -0.3468539  -0.1988653), wk =   0.0039062
        k(  383) = (  -0.3619882  -0.3434204  -0.1283556), wk =   0.0039062
        k(  384) = (  -0.3683138  -0.3399869  -0.0578460), wk =   0.0039062
        k(  385) = (  -0.2501594  -0.1363959   0.0041445), wk =   0.0039062
        k(  386) = (  -0.2564850  -0.1329624   0.0746541), wk =   0.0039062
        k(  387) = (  -0.2628106  -0.1295289   0.1451638), wk =   0.0039062
        k(  388) = (  -0.2691362  -0.1260954   0.2156734), wk =   0.0039062
        k(  389) = (  -0.2248571  -0.1501298  -0.2778940), wk =   0.0039062
        k(  390) = (  -0.2311827  -0.1466964  -0.2073843), wk =   0.0039062
        k(  391) = (  -0.2375083  -0.1432629  -0.1368747), wk =   0.0039062
        k(  392) = (  -0.2438338  -0.1398294  -0.0663651), wk =   0.0039062
        k(  393) = (  -0.2507592  -0.0044363  -0.0023023), wk =   0.0039062
        k(  394) = (  -0.2570848  -0.0010028   0.0682073), wk =   0.0039062
        k(  395) = (  -0.2634103   0.0024307   0.1387170), wk =   0.0039062
        k(  396) = (  -0.2697359   0.0058642   0.2092266), wk =   0.0039062
        k(  397) = (  -0.2254568  -0.0181703  -0.2843408), wk =   0.0039062
        k(  398) = (  -0.2317824  -0.0147368  -0.2138312), wk =   0.0039062
        k(  399) = (  -0.2381080  -0.0113033  -0.1433215), wk =   0.0039062
        k(  400) = (  -0.2444336  -0.0078698  -0.0728119), wk =   0.0039062
        k(  401) = (  -0.2513589   0.1275233  -0.0087491), wk =   0.0039062
        k(  402) = (  -0.2576845   0.1309568   0.0617605), wk =   0.0039062
        k(  403) = (  -0.2640101   0.1343903   0.1322701), wk =   0.0039062
        k(  404) = (  -0.2703357   0.1378238   0.2027798), wk =   0.0039062
        k(  405) = (  -0.2260566   0.1137893  -0.2907876), wk =   0.0039062
        k(  406) = (  -0.2323822   0.1172228  -0.2202780), wk =   0.0039062
        k(  407) = (  -0.2387078   0.1206563  -0.1497684), wk =   0.0039062
        k(  408) = (  -0.2450333   0.1240898  -0.0792587), wk =   0.0039062
        k(  409) = (  -0.2519587   0.2594829  -0.0151959), wk =   0.0039062
        k(  410) = (  -0.2582843   0.2629164   0.0553137), wk =   0.0039062
        k(  411) = (  -0.2646099   0.2663499   0.1258233), wk =   0.0039062
        k(  412) = (  -0.2709354   0.2697833   0.1963329), wk =   0.0039062
        k(  413) = (  -0.2266564   0.2457489  -0.2972344), wk =   0.0039062
        k(  414) = (  -0.2329819   0.2491824  -0.2267248), wk =   0.0039062
        k(  415) = (  -0.2393075   0.2526159  -0.1562152), wk =   0.0039062
        k(  416) = (  -0.2456331   0.2560494  -0.0857055), wk =   0.0039062
        k(  417) = (  -0.2477604  -0.6642342   0.0299318), wk =   0.0039062
        k(  418) = (  -0.2540860  -0.6608007   0.1004414), wk =   0.0039062
        k(  419) = (  -0.2604116  -0.6573672   0.1709510), wk =   0.0039062
        k(  420) = (  -0.2667371  -0.6539337   0.2414607), wk =   0.0039062
        k(  421) = (  -0.2224581  -0.6779682  -0.2521067), wk =   0.0039062
        k(  422) = (  -0.2287837  -0.6745347  -0.1815971), wk =   0.0039062
        k(  423) = (  -0.2351092  -0.6711012  -0.1110874), wk =   0.0039062
        k(  424) = (  -0.2414348  -0.6676677  -0.0405778), wk =   0.0039062
        k(  425) = (  -0.2483602  -0.5322746   0.0234850), wk =   0.0039062
        k(  426) = (  -0.2546857  -0.5288411   0.0939946), wk =   0.0039062
        k(  427) = (  -0.2610113  -0.5254076   0.1645042), wk =   0.0039062
        k(  428) = (  -0.2673369  -0.5219741   0.2350138), wk =   0.0039062
        k(  429) = (  -0.2230578  -0.5460086  -0.2585535), wk =   0.0039062
        k(  430) = (  -0.2293834  -0.5425751  -0.1880439), wk =   0.0039062
        k(  431) = (  -0.2357090  -0.5391416  -0.1175343), wk =   0.0039062
        k(  432) = (  -0.2420346  -0.5357081  -0.0470246), wk =   0.0039062
        k(  433) = (  -0.2489599  -0.4003150   0.0170382), wk =   0.0039062
        k(  434) = (  -0.2552855  -0.3968815   0.0875478), wk =   0.0039062
        k(  435) = (  -0.2616111  -0.3934480   0.1580574), wk =   0.0039062
        k(  436) = (  -0.2679367  -0.3900145   0.2285670), wk =   0.0039062
        k(  437) = (  -0.2236576  -0.4140490  -0.2650003), wk =   0.0039062
        k(  438) = (  -0.2299832  -0.4106155  -0.1944907), wk =   0.0039062
        k(  439) = (  -0.2363087  -0.4071820  -0.1239811), wk =   0.0039062
        k(  440) = (  -0.2426343  -0.4037485  -0.0534715), wk =   0.0039062
        k(  441) = (  -0.2495597  -0.2683555   0.0105913), wk =   0.0039062
        k(  442) = (  -0.2558852  -0.2649220   0.0811010), wk =   0.0039062
        k(  443) = (  -0.2622108  -0.2614885   0.1516106), wk =   0.0039062
        k(  444) = (  -0.2685364  -0.2580550   0.2221202), wk =   0.0039062
        k(  445) = (  -0.2242573  -0.2820894  -0.2714471), wk =   0.0039062
        k(  446) = (  -0.2305829  -0.2786559  -0.2009375), wk =   0.0039062
        k(  447) = (  -0.2369085  -0.2752224  -0.1304279), wk =   0.0039062
        k(  448) = (  -0.2432341  -0.2717889  -0.0599183), wk =   0.0039062
        k(  449) = (  -0.1250797  -0.0681979   0.0020723), wk =   0.0039062
        k(  450) = (  -0.1314053  -0.0647644   0.0725819), wk =   0.0039062
        k(  451) = (  -0.1377309  -0.0613309   0.1430915), wk =   0.0039062
        k(  452) = (  -0.1440565  -0.0578975   0.2136011), wk =   0.0039062
        k(  453) = (  -0.0997774  -0.0819319  -0.2799662), wk =   0.0039062
        k(  454) = (  -0.1061030  -0.0784984  -0.2094566), wk =   0.0039062
        k(  455) = (  -0.1124285  -0.0750649  -0.1389470), wk =   0.0039062
        k(  456) = (  -0.1187541  -0.0716314  -0.0684374), wk =   0.0039062
        k(  457) = (  -0.1256795   0.0637616  -0.0043746), wk =   0.0039062
        k(  458) = (  -0.1320050   0.0671951   0.0661351), wk =   0.0039062
        k(  459) = (  -0.1383306   0.0706286   0.1366447), wk =   0.0039062
        k(  460) = (  -0.1446562   0.0740621   0.2071543), wk =   0.0039062
        k(  461) = (  -0.1003771   0.0500277  -0.2864130), wk =   0.0039062
        k(  462) = (  -0.1067027   0.0534612  -0.2159034), wk =   0.0039062
        k(  463) = (  -0.1130283   0.0568947  -0.1453938), wk =   0.0039062
        k(  464) = (  -0.1193539   0.0603281  -0.0748842), wk =   0.0039062
        k(  465) = (  -0.1262792   0.1957212  -0.0108214), wk =   0.0039062
        k(  466) = (  -0.1326048   0.1991547   0.0596882), wk =   0.0039062
        k(  467) = (  -0.1389304   0.2025882   0.1301979), wk =   0.0039062
        k(  468) = (  -0.1452560   0.2060217   0.2007075), wk =   0.0039062
        k(  469) = (  -0.1009769   0.1819872  -0.2928599), wk =   0.0039062
        k(  470) = (  -0.1073025   0.1854207  -0.2223502), wk =   0.0039062
        k(  471) = (  -0.1136281   0.1888542  -0.1518406), wk =   0.0039062
        k(  472) = (  -0.1199536   0.1922877  -0.0813310), wk =   0.0039062
        k(  473) = (  -0.1268790   0.3276808  -0.0172682), wk =   0.0039062
        k(  474) = (  -0.1332046   0.3311143   0.0532414), wk =   0.0039062
        k(  475) = (  -0.1395301   0.3345478   0.1237511), wk =   0.0039062
        k(  476) = (  -0.1458557   0.3379813   0.1942607), wk =   0.0039062
        k(  477) = (  -0.1015766   0.3139468  -0.2993067), wk =   0.0039062
        k(  478) = (  -0.1079022   0.3173803  -0.2287971), wk =   0.0039062
        k(  479) = (  -0.1142278   0.3208138  -0.1582874), wk =   0.0039062
        k(  480) = (  -0.1205534   0.3242473  -0.0877778), wk =   0.0039062
        k(  481) = (  -0.1226807  -0.5960363   0.0278595), wk =   0.0039062
        k(  482) = (  -0.1290063  -0.5926028   0.0983692), wk =   0.0039062
        k(  483) = (  -0.1353319  -0.5891693   0.1688788), wk =   0.0039062
        k(  484) = (  -0.1416574  -0.5857358   0.2393884), wk =   0.0039062
        k(  485) = (  -0.0973784  -0.6097702  -0.2541789), wk =   0.0039062
        k(  486) = (  -0.1037039  -0.6063367  -0.1836693), wk =   0.0039062
        k(  487) = (  -0.1100295  -0.6029032  -0.1131597), wk =   0.0039062
        k(  488) = (  -0.1163551  -0.5994697  -0.0426501), wk =   0.0039062
        k(  489) = (  -0.1232804  -0.4640767   0.0214127), wk =   0.0039062
        k(  490) = (  -0.1296060  -0.4606432   0.0919223), wk =   0.0039062
        k(  491) = (  -0.1359316  -0.4572097   0.1624320), wk =   0.0039062
        k(  492) = (  -0.1422572  -0.4537762   0.2329416), wk =   0.0039062
        k(  493) = (  -0.0979781  -0.4778106  -0.2606258), wk =   0.0039062
        k(  494) = (  -0.1043037  -0.4743772  -0.1901161), wk =   0.0039062
        k(  495) = (  -0.1106293  -0.4709437  -0.1196065), wk =   0.0039062
        k(  496) = (  -0.1169549  -0.4675102  -0.0490969), wk =   0.0039062
        k(  497) = (  -0.1238802  -0.3321171   0.0149659), wk =   0.0039062
        k(  498) = (  -0.1302058  -0.3286836   0.0854755), wk =   0.0039062
        k(  499) = (  -0.1365314  -0.3252501   0.1559851), wk =   0.0039062
        k(  500) = (  -0.1428569  -0.3218166   0.2264948), wk =   0.0039062
        k(  501) = (  -0.0985779  -0.3458511  -0.2670726), wk =   0.0039062
        k(  502) = (  -0.1049035  -0.3424176  -0.1965630), wk =   0.0039062
        k(  503) = (  -0.1112290  -0.3389841  -0.1260533), wk =   0.0039062
        k(  504) = (  -0.1175546  -0.3355506  -0.0555437), wk =   0.0039062
        k(  505) = (  -0.1244800  -0.2001575   0.0085191), wk =   0.0039062
        k(  506) = (  -0.1308055  -0.1967240   0.0790287), wk =   0.0039062
        k(  507) = (  -0.1371311  -0.1932905   0.1495383), wk =   0.0039062
        k(  508) = (  -0.1434567  -0.1898570   0.2200479), wk =   0.0039062
        k(  509) = (  -0.0991776  -0.2138915  -0.2735194), wk =   0.0039062
        k(  510) = (  -0.1055032  -0.2104580  -0.2030098), wk =   0.0039062
        k(  511) = (  -0.1118288  -0.2070245  -0.1325002), wk =   0.0039062
        k(  512) = (  -0.1181544  -0.2035910  -0.0619905), wk =   0.0039062

                       cryst. coord.
        k(    1) = (   0.0000000   0.0000000   0.0000000), wk =   0.0039062
        k(    2) = (  -0.0000000   0.0000000   0.1250000), wk =   0.0039062
        k(    3) = (  -0.0000000   0.0000000   0.2500000), wk =   0.0039062
        k(    4) = (  -0.0000000   0.0000000   0.3750000), wk =   0.0039062
        k(    5) = (   0.0000000   0.0000000  -0.5000000), wk =   0.0039062
        k(    6) = (   0.0000000  -0.0000000  -0.3750000), wk =   0.0039062
        k(    7) = (   0.0000000   0.0000000  -0.2500000), wk =   0.0039062
        k(    8) = (   0.0000000   0.0000000  -0.1250000), wk =   0.0039062
        k(    9) = (   0.0000000   0.1250000   0.0000000), wk =   0.0039062
        k(   10) = (   0.0000000   0.1250000   0.1250000), wk =   0.0039062
        k(   11) = (  -0.0000000   0.1250000   0.2500000), wk =   0.0039062
        k(   12) = (   0.0000000   0.1250000   0.3750000), wk =   0.0039062
        k(   13) = (   0.0000000   0.1250000  -0.5000000), wk =   0.0039062
        k(   14) = (   0.0000000   0.1250000  -0.3750000), wk =   0.0039062
        k(   15) = (   0.0000000   0.1250000  -0.2500000), wk =   0.0039062
        k(   16) = (   0.0000000   0.1250000  -0.1250000), wk =   0.0039062
        k(   17) = (   0.0000000   0.2500000   0.0000000), wk =   0.0039062
        k(   18) = (  -0.0000000   0.2500000   0.1250000), wk =   0.0039062
        k(   19) = (   0.0000000   0.2500000   0.2500000), wk =   0.0039062
        k(   20) = (   0.0000000   0.2500000   0.3750000), wk =   0.0039062
        k(   21) = (   0.0000000   0.2500000  -0.5000000), wk =   0.0039062
        k(   22) = (   0.0000000   0.2500000  -0.3750000), wk =   0.0039062
        k(   23) = (   0.0000000   0.2500000  -0.2500000), wk =   0.0039062
        k(   24) = (   0.0000000   0.2500000  -0.1250000), wk =   0.0039062
        k(   25) = (   0.0000000   0.3750000  -0.0000000), wk =   0.0039062
        k(   26) = (  -0.0000000   0.3750000   0.1250000), wk =   0.0039062
        k(   27) = (  -0.0000000   0.3750000   0.2500000), wk =   0.0039062
        k(   28) = (  -0.0000000   0.3750000   0.3750000), wk =   0.0039062
        k(   29) = (   0.0000000   0.3750000  -0.5000000), wk =   0.0039062
        k(   30) = (   0.0000000   0.3750000  -0.3750000), wk =   0.0039062
        k(   31) = (   0.0000000   0.3750000  -0.2500000), wk =   0.0039062
        k(   32) = (   0.0000000   0.3750000  -0.1250000), wk =   0.0039062
        k(   33) = (   0.0000000  -0.5000000  -0.0000000), wk =   0.0039062
        k(   34) = (  -0.0000000  -0.5000000   0.1250000), wk =   0.0039062
        k(   35) = (   0.0000000  -0.5000000   0.2500000), wk =   0.0039062
        k(   36) = (   0.0000000  -0.5000000   0.3750000), wk =   0.0039062
        k(   37) = (   0.0000000  -0.5000000  -0.5000000), wk =   0.0039062
        k(   38) = (   0.0000000  -0.5000000  -0.3750000), wk =   0.0039062
        k(   39) = (   0.0000000  -0.5000000  -0.2500000), wk =   0.0039062
        k(   40) = (   0.0000000  -0.5000000  -0.1250000), wk =   0.0039062
        k(   41) = (   0.0000000  -0.3750000   0.0000000), wk =   0.0039062
        k(   42) = (   0.0000000  -0.3750000   0.1250000), wk =   0.0039062
        k(   43) = (   0.0000000  -0.3750000   0.2500000), wk =   0.0039062
        k(   44) = (   0.0000000  -0.3750000   0.3750000), wk =   0.0039062
        k(   45) = (   0.0000000  -0.3750000  -0.5000000), wk =   0.0039062
        k(   46) = (   0.0000000  -0.3750000  -0.3750000), wk =   0.0039062
        k(   47) = (   0.0000000  -0.3750000  -0.2500000), wk =   0.0039062
        k(   48) = (   0.0000000  -0.3750000  -0.1250000), wk =   0.0039062
        k(   49) = (   0.0000000  -0.2500000  -0.0000000), wk =   0.0039062
        k(   50) = (   0.0000000  -0.2500000   0.1250000), wk =   0.0039062
        k(   51) = (  -0.0000000  -0.2500000   0.2500000), wk =   0.0039062
        k(   52) = (   0.0000000  -0.2500000   0.3750000), wk =   0.0039062
        k(   53) = (   0.0000000  -0.2500000  -0.5000000), wk =   0.0039062
        k(   54) = (   0.0000000  -0.2500000  -0.3750000), wk =   0.0039062
        k(   55) = (   0.0000000  -0.2500000  -0.2500000), wk =   0.0039062
        k(   56) = (   0.0000000  -0.2500000  -0.1250000), wk =   0.0039062
        k(   57) = (   0.0000000  -0.1250000  -0.0000000), wk =   0.0039062
        k(   58) = (  -0.0000000  -0.1250000   0.1250000), wk =   0.0039062
        k(   59) = (  -0.0000000  -0.1250000   0.2500000), wk =   0.0039062
        k(   60) = (   0.0000000  -0.1250000   0.3750000), wk =   0.0039062
        k(   61) = (   0.0000000  -0.1250000  -0.5000000), wk =   0.0039062
        k(   62) = (   0.0000000  -0.1250000  -0.3750000), wk =   0.0039062
        k(   63) = (   0.0000000  -0.1250000  -0.2500000), wk =   0.0039062
        k(   64) = (   0.0000000  -0.1250000  -0.1250000), wk =   0.0039062
        k(   65) = (   0.1250000  -0.0000000   0.0000000), wk =   0.0039062
        k(   66) = (   0.1250000  -0.0000000   0.1250000), wk =   0.0039062
        k(   67) = (   0.1250000   0.0000000   0.2500000), wk =   0.0039062
        k(   68) = (   0.1250000   0.0000000   0.3750000), wk =   0.0039062
        k(   69) = (   0.1250000   0.0000000  -0.5000000), wk =   0.0039062
        k(   70) = (   0.1250000   0.0000000  -0.3750000), wk =   0.0039062
        k(   71) = (   0.1250000   0.0000000  -0.2500000), wk =   0.0039062
        k(   72) = (   0.1250000   0.0000000  -0.1250000), wk =   0.0039062
        k(   73) = (   0.1250000   0.1250000   0.0000000), wk =   0.0039062
        k(   74) = (   0.1250000   0.1250000   0.1250000), wk =   0.0039062
        k(   75) = (   0.1250000   0.1250000   0.2500000), wk =   0.0039062
        k(   76) = (   0.1250000   0.1250000   0.3750000), wk =   0.0039062
        k(   77) = (   0.1250000   0.1250000  -0.5000000), wk =   0.0039062
        k(   78) = (   0.1250000   0.1250000  -0.3750000), wk =   0.0039062
        k(   79) = (   0.1250000   0.1250000  -0.2500000), wk =   0.0039062
        k(   80) = (   0.1250000   0.1250000  -0.1250000), wk =   0.0039062
        k(   81) = (   0.1250000   0.2500000   0.0000000), wk =   0.0039062
        k(   82) = (   0.1250000   0.2500000   0.1250000), wk =   0.0039062
        k(   83) = (   0.1250000   0.2500000   0.2500000), wk =   0.0039062
        k(   84) = (   0.1250000   0.2500000   0.3750000), wk =   0.0039062
        k(   85) = (   0.1250000   0.2500000  -0.5000000), wk =   0.0039062
        k(   86) = (   0.1250000   0.2500000  -0.3750000), wk =   0.0039062
        k(   87) = (   0.1250000   0.2500000  -0.2500000), wk =   0.0039062
        k(   88) = (   0.1250000   0.2500000  -0.1250000), wk =   0.0039062
        k(   89) = (   0.1250000   0.3750000   0.0000000), wk =   0.0039062
        k(   90) = (   0.1250000   0.3750000   0.1250000), wk =   0.0039062
        k(   91) = (   0.1250000   0.3750000   0.2500000), wk =   0.0039062
        k(   92) = (   0.1250000   0.3750000   0.3750000), wk =   0.0039062
        k(   93) = (   0.1250000   0.3750000  -0.5000000), wk =   0.0039062
        k(   94) = (   0.1250000   0.3750000  -0.3750000), wk =   0.0039062
        k(   95) = (   0.1250000   0.3750000  -0.2500000), wk =   0.0039062
        k(   96) = (   0.1250000   0.3750000  -0.1250000), wk =   0.0039062
        k(   97) = (   0.1250000  -0.5000000   0.0000000), wk =   0.0039062
        k(   98) = (   0.1250000  -0.5000000   0.1250000), wk =   0.0039062
        k(   99) = (   0.1250000  -0.5000000   0.2500000), wk =   0.0039062
        k(  100) = (   0.1250000  -0.5000000   0.3750000), wk =   0.0039062
        k(  101) = (   0.1250000  -0.5000000  -0.5000000), wk =   0.0039062
        k(  102) = (   0.1250000  -0.5000000  -0.3750000), wk =   0.0039062
        k(  103) = (   0.1250000  -0.5000000  -0.2500000), wk =   0.0039062
        k(  104) = (   0.1250000  -0.5000000  -0.1250000), wk =   0.0039062
        k(  105) = (   0.1250000  -0.3750000  -0.0000000), wk =   0.0039062
        k(  106) = (   0.1250000  -0.3750000   0.1250000), wk =   0.0039062
        k(  107) = (   0.1250000  -0.3750000   0.2500000), wk =   0.0039062
        k(  108) = (   0.1250000  -0.3750000   0.3750000), wk =   0.0039062
        k(  109) = (   0.1250000  -0.3750000  -0.5000000), wk =   0.0039062
        k(  110) = (   0.1250000  -0.3750000  -0.3750000), wk =   0.0039062
        k(  111) = (   0.1250000  -0.3750000  -0.2500000), wk =   0.0039062
        k(  112) = (   0.1250000  -0.3750000  -0.1250000), wk =   0.0039062
        k(  113) = (   0.1250000  -0.2500000   0.0000000), wk =   0.0039062
        k(  114) = (   0.1250000  -0.2500000   0.1250000), wk =   0.0039062
        k(  115) = (   0.1250000  -0.2500000   0.2500000), wk =   0.0039062
        k(  116) = (   0.1250000  -0.2500000   0.3750000), wk =   0.0039062
        k(  117) = (   0.1250000  -0.2500000  -0.5000000), wk =   0.0039062
        k(  118) = (   0.1250000  -0.2500000  -0.3750000), wk =   0.0039062
        k(  119) = (   0.1250000  -0.2500000  -0.2500000), wk =   0.0039062
        k(  120) = (   0.1250000  -0.2500000  -0.1250000), wk =   0.0039062
        k(  121) = (   0.1250000  -0.1250000   0.0000000), wk =   0.0039062
        k(  122) = (   0.1250000  -0.1250000   0.1250000), wk =   0.0039062
        k(  123) = (   0.1250000  -0.1250000   0.2500000), wk =   0.0039062
        k(  124) = (   0.1250000  -0.1250000   0.3750000), wk =   0.0039062
        k(  125) = (   0.1250000  -0.1250000  -0.5000000), wk =   0.0039062
        k(  126) = (   0.1250000  -0.1250000  -0.3750000), wk =   0.0039062
        k(  127) = (   0.1250000  -0.1250000  -0.2500000), wk =   0.0039062
        k(  128) = (   0.1250000  -0.1250000  -0.1250000), wk =   0.0039062
        k(  129) = (   0.2500000  -0.0000000   0.0000000), wk =   0.0039062
        k(  130) = (   0.2500000  -0.0000000   0.1250000), wk =   0.0039062
        k(  131) = (   0.2500000  -0.0000000   0.2500000), wk =   0.0039062
        k(  132) = (   0.2500000   0.0000000   0.3750000), wk =   0.0039062
        k(  133) = (   0.2500000   0.0000000  -0.5000000), wk =   0.0039062
        k(  134) = (   0.2500000   0.0000000  -0.3750000), wk =   0.0039062
        k(  135) = (   0.2500000   0.0000000  -0.2500000), wk =   0.0039062
        k(  136) = (   0.2500000  -0.0000000  -0.1250000), wk =   0.0039062
        k(  137) = (   0.2500000   0.1250000   0.0000000), wk =   0.0039062
        k(  138) = (   0.2500000   0.1250000   0.1250000), wk =   0.0039062
        k(  139) = (   0.2500000   0.1250000   0.2500000), wk =   0.0039062
        k(  140) = (   0.2500000   0.1250000   0.3750000), wk =   0.0039062
        k(  141) = (   0.2500000   0.1250000  -0.5000000), wk =   0.0039062
        k(  142) = (   0.2500000   0.1250000  -0.3750000), wk =   0.0039062
        k(  143) = (   0.2500000   0.1250000  -0.2500000), wk =   0.0039062
        k(  144) = (   0.2500000   0.1250000  -0.1250000), wk =   0.0039062
        k(  145) = (   0.2500000   0.2500000   0.0000000), wk =   0.0039062
        k(  146) = (   0.2500000   0.2500000   0.1250000), wk =   0.0039062
        k(  147) = (   0.2500000   0.2500000   0.2500000), wk =   0.0039062
        k(  148) = (   0.2500000   0.2500000   0.3750000), wk =   0.0039062
        k(  149) = (   0.2500000   0.2500000  -0.5000000), wk =   0.0039062
        k(  150) = (   0.2500000   0.2500000  -0.3750000), wk =   0.0039062
        k(  151) = (   0.2500000   0.2500000  -0.2500000), wk =   0.0039062
        k(  152) = (   0.2500000   0.2500000  -0.1250000), wk =   0.0039062
        k(  153) = (   0.2500000   0.3750000   0.0000000), wk =   0.0039062
        k(  154) = (   0.2500000   0.3750000   0.1250000), wk =   0.0039062
        k(  155) = (   0.2500000   0.3750000   0.2500000), wk =   0.0039062
        k(  156) = (   0.2500000   0.3750000   0.3750000), wk =   0.0039062
        k(  157) = (   0.2500000   0.3750000  -0.5000000), wk =   0.0039062
        k(  158) = (   0.2500000   0.3750000  -0.3750000), wk =   0.0039062
        k(  159) = (   0.2500000   0.3750000  -0.2500000), wk =   0.0039062
        k(  160) = (   0.2500000   0.3750000  -0.1250000), wk =   0.0039062
        k(  161) = (   0.2500000  -0.5000000   0.0000000), wk =   0.0039062
        k(  162) = (   0.2500000  -0.5000000   0.1250000), wk =   0.0039062
        k(  163) = (   0.2500000  -0.5000000   0.2500000), wk =   0.0039062
        k(  164) = (   0.2500000  -0.5000000   0.3750000), wk =   0.0039062
        k(  165) = (   0.2500000  -0.5000000  -0.5000000), wk =   0.0039062
        k(  166) = (   0.2500000  -0.5000000  -0.3750000), wk =   0.0039062
        k(  167) = (   0.2500000  -0.5000000  -0.2500000), wk =   0.0039062
        k(  168) = (   0.2500000  -0.5000000  -0.1250000), wk =   0.0039062
        k(  169) = (   0.2500000  -0.3750000   0.0000000), wk =   0.0039062
        k(  170) = (   0.2500000  -0.3750000   0.1250000), wk =   0.0039062
        k(  171) = (   0.2500000  -0.3750000   0.2500000), wk =   0.0039062
        k(  172) = (   0.2500000  -0.3750000   0.3750000), wk =   0.0039062
        k(  173) = (   0.2500000  -0.3750000  -0.5000000), wk =   0.0039062
        k(  174) = (   0.2500000  -0.3750000  -0.3750000), wk =   0.0039062
        k(  175) = (   0.2500000  -0.3750000  -0.2500000), wk =   0.0039062
        k(  176) = (   0.2500000  -0.3750000  -0.1250000), wk =   0.0039062
        k(  177) = (   0.2500000  -0.2500000   0.0000000), wk =   0.0039062
        k(  178) = (   0.2500000  -0.2500000   0.1250000), wk =   0.0039062
        k(  179) = (   0.2500000  -0.2500000   0.2500000), wk =   0.0039062
        k(  180) = (   0.2500000  -0.2500000   0.3750000), wk =   0.0039062
        k(  181) = (   0.2500000  -0.2500000  -0.5000000), wk =   0.0039062
        k(  182) = (   0.2500000  -0.2500000  -0.3750000), wk =   0.0039062
        k(  183) = (   0.2500000  -0.2500000  -0.2500000), wk =   0.0039062
        k(  184) = (   0.2500000  -0.2500000  -0.1250000), wk =   0.0039062
        k(  185) = (   0.2500000  -0.1250000   0.0000000), wk =   0.0039062
        k(  186) = (   0.2500000  -0.1250000   0.1250000), wk =   0.0039062
        k(  187) = (   0.2500000  -0.1250000   0.2500000), wk =   0.0039062
        k(  188) = (   0.2500000  -0.1250000   0.3750000), wk =   0.0039062
        k(  189) = (   0.2500000  -0.1250000  -0.5000000), wk =   0.0039062
        k(  190) = (   0.2500000  -0.1250000  -0.3750000), wk =   0.0039062
        k(  191) = (   0.2500000  -0.1250000  -0.2500000), wk =   0.0039062
        k(  192) = (   0.2500000  -0.1250000  -0.1250000), wk =   0.0039062
        k(  193) = (   0.3750000   0.0000000   0.0000000), wk =   0.0039062
        k(  194) = (   0.3750000   0.0000000   0.1250000), wk =   0.0039062
        k(  195) = (   0.3750000   0.0000000   0.2500000), wk =   0.0039062
        k(  196) = (   0.3750000   0.0000000   0.3750000), wk =   0.0039062
        k(  197) = (   0.3750000   0.0000000  -0.5000000), wk =   0.0039062
        k(  198) = (   0.3750000   0.0000000  -0.3750000), wk =   0.0039062
        k(  199) = (   0.3750000   0.0000000  -0.2500000), wk =   0.0039062
        k(  200) = (   0.3750000   0.0000000  -0.1250000), wk =   0.0039062
        k(  201) = (   0.3750000   0.1250000   0.0000000), wk =   0.0039062
        k(  202) = (   0.3750000   0.1250000   0.1250000), wk =   0.0039062
        k(  203) = (   0.3750000   0.1250000   0.2500000), wk =   0.0039062
        k(  204) = (   0.3750000   0.1250000   0.3750000), wk =   0.0039062
        k(  205) = (   0.3750000   0.1250000  -0.5000000), wk =   0.0039062
        k(  206) = (   0.3750000   0.1250000  -0.3750000), wk =   0.0039062
        k(  207) = (   0.3750000   0.1250000  -0.2500000), wk =   0.0039062
        k(  208) = (   0.3750000   0.1250000  -0.1250000), wk =   0.0039062
        k(  209) = (   0.3750000   0.2500000   0.0000000), wk =   0.0039062
        k(  210) = (   0.3750000   0.2500000   0.1250000), wk =   0.0039062
        k(  211) = (   0.3750000   0.2500000   0.2500000), wk =   0.0039062
        k(  212) = (   0.3750000   0.2500000   0.3750000), wk =   0.0039062
        k(  213) = (   0.3750000   0.2500000  -0.5000000), wk =   0.0039062
        k(  214) = (   0.3750000   0.2500000  -0.3750000), wk =   0.0039062
        k(  215) = (   0.3750000   0.2500000  -0.2500000), wk =   0.0039062
        k(  216) = (   0.3750000   0.2500000  -0.1250000), wk =   0.0039062
        k(  217) = (   0.3750000   0.3750000   0.0000000), wk =   0.0039062
        k(  218) = (   0.3750000   0.3750000   0.1250000), wk =   0.0039062
        k(  219) = (   0.3750000   0.3750000   0.2500000), wk =   0.0039062
        k(  220) = (   0.3750000   0.3750000   0.3750000), wk =   0.0039062
        k(  221) = (   0.3750000   0.3750000  -0.5000000), wk =   0.0039062
        k(  222) = (   0.3750000   0.3750000  -0.3750000), wk =   0.0039062
        k(  223) = (   0.3750000   0.3750000  -0.2500000), wk =   0.0039062
        k(  224) = (   0.3750000   0.3750000  -0.1250000), wk =   0.0039062
        k(  225) = (   0.3750000  -0.5000000   0.0000000), wk =   0.0039062
        k(  226) = (   0.3750000  -0.5000000   0.1250000), wk =   0.0039062
        k(  227) = (   0.3750000  -0.5000000   0.2500000), wk =   0.0039062
        k(  228) = (   0.3750000  -0.5000000   0.3750000), wk =   0.0039062
        k(  229) = (   0.3750000  -0.5000000  -0.5000000), wk =   0.0039062
        k(  230) = (   0.3750000  -0.5000000  -0.3750000), wk =   0.0039062
        k(  231) = (   0.3750000  -0.5000000  -0.2500000), wk =   0.0039062
        k(  232) = (   0.3750000  -0.5000000  -0.1250000), wk =   0.0039062
        k(  233) = (   0.3750000  -0.3750000   0.0000000), wk =   0.0039062
        k(  234) = (   0.3750000  -0.3750000   0.1250000), wk =   0.0039062
        k(  235) = (   0.3750000  -0.3750000   0.2500000), wk =   0.0039062
        k(  236) = (   0.3750000  -0.3750000   0.3750000), wk =   0.0039062
        k(  237) = (   0.3750000  -0.3750000  -0.5000000), wk =   0.0039062
        k(  238) = (   0.3750000  -0.3750000  -0.3750000), wk =   0.0039062
        k(  239) = (   0.3750000  -0.3750000  -0.2500000), wk =   0.0039062
        k(  240) = (   0.3750000  -0.3750000  -0.1250000), wk =   0.0039062
        k(  241) = (   0.3750000  -0.2500000   0.0000000), wk =   0.0039062
        k(  242) = (   0.3750000  -0.2500000   0.1250000), wk =   0.0039062
        k(  243) = (   0.3750000  -0.2500000   0.2500000), wk =   0.0039062
        k(  244) = (   0.3750000  -0.2500000   0.3750000), wk =   0.0039062
        k(  245) = (   0.3750000  -0.2500000  -0.5000000), wk =   0.0039062
        k(  246) = (   0.3750000  -0.2500000  -0.3750000), wk =   0.0039062
        k(  247) = (   0.3750000  -0.2500000  -0.2500000), wk =   0.0039062
        k(  248) = (   0.3750000  -0.2500000  -0.1250000), wk =   0.0039062
        k(  249) = (   0.3750000  -0.1250000   0.0000000), wk =   0.0039062
        k(  250) = (   0.3750000  -0.1250000   0.1250000), wk =   0.0039062
        k(  251) = (   0.3750000  -0.1250000   0.2500000), wk =   0.0039062
        k(  252) = (   0.3750000  -0.1250000   0.3750000), wk =   0.0039062
        k(  253) = (   0.3750000  -0.1250000  -0.5000000), wk =   0.0039062
        k(  254) = (   0.3750000  -0.1250000  -0.3750000), wk =   0.0039062
        k(  255) = (   0.3750000  -0.1250000  -0.2500000), wk =   0.0039062
        k(  256) = (   0.3750000  -0.1250000  -0.1250000), wk =   0.0039062
        k(  257) = (  -0.5000000   0.0000000  -0.0000000), wk =   0.0039062
        k(  258) = (  -0.5000000   0.0000000   0.1250000), wk =   0.0039062
        k(  259) = (  -0.5000000   0.0000000   0.2500000), wk =   0.0039062
        k(  260) = (  -0.5000000   0.0000000   0.3750000), wk =   0.0039062
        k(  261) = (  -0.5000000   0.0000000  -0.5000000), wk =   0.0039062
        k(  262) = (  -0.5000000  -0.0000000  -0.3750000), wk =   0.0039062
        k(  263) = (  -0.5000000   0.0000000  -0.2500000), wk =   0.0039062
        k(  264) = (  -0.5000000  -0.0000000  -0.1250000), wk =   0.0039062
        k(  265) = (  -0.5000000   0.1250000  -0.0000000), wk =   0.0039062
        k(  266) = (  -0.5000000   0.1250000   0.1250000), wk =   0.0039062
        k(  267) = (  -0.5000000   0.1250000   0.2500000), wk =   0.0039062
        k(  268) = (  -0.5000000   0.1250000   0.3750000), wk =   0.0039062
        k(  269) = (  -0.5000000   0.1250000  -0.5000000), wk =   0.0039062
        k(  270) = (  -0.5000000   0.1250000  -0.3750000), wk =   0.0039062
        k(  271) = (  -0.5000000   0.1250000  -0.2500000), wk =   0.0039062
        k(  272) = (  -0.5000000   0.1250000  -0.1250000), wk =   0.0039062
        k(  273) = (  -0.5000000   0.2500000   0.0000000), wk =   0.0039062
        k(  274) = (  -0.5000000   0.2500000   0.1250000), wk =   0.0039062
        k(  275) = (  -0.5000000   0.2500000   0.2500000), wk =   0.0039062
        k(  276) = (  -0.5000000   0.2500000   0.3750000), wk =   0.0039062
        k(  277) = (  -0.5000000   0.2500000  -0.5000000), wk =   0.0039062
        k(  278) = (  -0.5000000   0.2500000  -0.3750000), wk =   0.0039062
        k(  279) = (  -0.5000000   0.2500000  -0.2500000), wk =   0.0039062
        k(  280) = (  -0.5000000   0.2500000  -0.1250000), wk =   0.0039062
        k(  281) = (  -0.5000000   0.3750000  -0.0000000), wk =   0.0039062
        k(  282) = (  -0.5000000   0.3750000   0.1250000), wk =   0.0039062
        k(  283) = (  -0.5000000   0.3750000   0.2500000), wk =   0.0039062
        k(  284) = (  -0.5000000   0.3750000   0.3750000), wk =   0.0039062
        k(  285) = (  -0.5000000   0.3750000  -0.5000000), wk =   0.0039062
        k(  286) = (  -0.5000000   0.3750000  -0.3750000), wk =   0.0039062
        k(  287) = (  -0.5000000   0.3750000  -0.2500000), wk =   0.0039062
        k(  288) = (  -0.5000000   0.3750000  -0.1250000), wk =   0.0039062
        k(  289) = (  -0.5000000  -0.5000000  -0.0000000), wk =   0.0039062
        k(  290) = (  -0.5000000  -0.5000000   0.1250000), wk =   0.0039062
        k(  291) = (  -0.5000000  -0.5000000   0.2500000), wk =   0.0039062
        k(  292) = (  -0.5000000  -0.5000000   0.3750000), wk =   0.0039062
        k(  293) = (  -0.5000000  -0.5000000  -0.5000000), wk =   0.0039062
        k(  294) = (  -0.5000000  -0.5000000  -0.3750000), wk =   0.0039062
        k(  295) = (  -0.5000000  -0.5000000  -0.2500000), wk =   0.0039062
        k(  296) = (  -0.5000000  -0.5000000  -0.1250000), wk =   0.0039062
        k(  297) = (  -0.5000000  -0.3750000  -0.0000000), wk =   0.0039062
        k(  298) = (  -0.5000000  -0.3750000   0.1250000), wk =   0.0039062
        k(  299) = (  -0.5000000  -0.3750000   0.2500000), wk =   0.0039062
        k(  300) = (  -0.5000000  -0.3750000   0.3750000), wk =   0.0039062
        k(  301) = (  -0.5000000  -0.3750000  -0.5000000), wk =   0.0039062
        k(  302) = (  -0.5000000  -0.3750000  -0.3750000), wk =   0.0039062
        k(  303) = (  -0.5000000  -0.3750000  -0.2500000), wk =   0.0039062
        k(  304) = (  -0.5000000  -0.3750000  -0.1250000), wk =   0.0039062
        k(  305) = (  -0.5000000  -0.2500000  -0.0000000), wk =   0.0039062
        k(  306) = (  -0.5000000  -0.2500000   0.1250000), wk =   0.0039062
        k(  307) = (  -0.5000000  -0.2500000   0.2500000), wk =   0.0039062
        k(  308) = (  -0.5000000  -0.2500000   0.3750000), wk =   0.0039062
        k(  309) = (  -0.5000000  -0.2500000  -0.5000000), wk =   0.0039062
        k(  310) = (  -0.5000000  -0.2500000  -0.3750000), wk =   0.0039062
        k(  311) = (  -0.5000000  -0.2500000  -0.2500000), wk =   0.0039062
        k(  312) = (  -0.5000000  -0.2500000  -0.1250000), wk =   0.0039062
        k(  313) = (  -0.5000000  -0.1250000  -0.0000000), wk =   0.0039062
        k(  314) = (  -0.5000000  -0.1250000   0.1250000), wk =   0.0039062
        k(  315) = (  -0.5000000  -0.1250000   0.2500000), wk =   0.0039062
        k(  316) = (  -0.5000000  -0.1250000   0.3750000), wk =   0.0039062
        k(  317) = (  -0.5000000  -0.1250000  -0.5000000), wk =   0.0039062
        k(  318) = (  -0.5000000  -0.1250000  -0.3750000), wk =   0.0039062
        k(  319) = (  -0.5000000  -0.1250000  -0.2500000), wk =   0.0039062
        k(  320) = (  -0.5000000  -0.1250000  -0.1250000), wk =   0.0039062
        k(  321) = (  -0.3750000  -0.0000000  -0.0000000), wk =   0.0039062
        k(  322) = (  -0.3750000  -0.0000000   0.1250000), wk =   0.0039062
        k(  323) = (  -0.3750000  -0.0000000   0.2500000), wk =   0.0039062
        k(  324) = (  -0.3750000   0.0000000   0.3750000), wk =   0.0039062
        k(  325) = (  -0.3750000  -0.0000000  -0.5000000), wk =   0.0039062
        k(  326) = (  -0.3750000  -0.0000000  -0.3750000), wk =   0.0039062
        k(  327) = (  -0.3750000  -0.0000000  -0.2500000), wk =   0.0039062
        k(  328) = (  -0.3750000  -0.0000000  -0.1250000), wk =   0.0039062
        k(  329) = (  -0.3750000   0.1250000  -0.0000000), wk =   0.0039062
        k(  330) = (  -0.3750000   0.1250000   0.1250000), wk =   0.0039062
        k(  331) = (  -0.3750000   0.1250000   0.2500000), wk =   0.0039062
        k(  332) = (  -0.3750000   0.1250000   0.3750000), wk =   0.0039062
        k(  333) = (  -0.3750000   0.1250000  -0.5000000), wk =   0.0039062
        k(  334) = (  -0.3750000   0.1250000  -0.3750000), wk =   0.0039062
        k(  335) = (  -0.3750000   0.1250000  -0.2500000), wk =   0.0039062
        k(  336) = (  -0.3750000   0.1250000  -0.1250000), wk =   0.0039062
        k(  337) = (  -0.3750000   0.2500000  -0.0000000), wk =   0.0039062
        k(  338) = (  -0.3750000   0.2500000   0.1250000), wk =   0.0039062
        k(  339) = (  -0.3750000   0.2500000   0.2500000), wk =   0.0039062
        k(  340) = (  -0.3750000   0.2500000   0.3750000), wk =   0.0039062
        k(  341) = (  -0.3750000   0.2500000  -0.5000000), wk =   0.0039062
        k(  342) = (  -0.3750000   0.2500000  -0.3750000), wk =   0.0039062
        k(  343) = (  -0.3750000   0.2500000  -0.2500000), wk =   0.0039062
        k(  344) = (  -0.3750000   0.2500000  -0.1250000), wk =   0.0039062
        k(  345) = (  -0.3750000   0.3750000  -0.0000000), wk =   0.0039062
        k(  346) = (  -0.3750000   0.3750000   0.1250000), wk =   0.0039062
        k(  347) = (  -0.3750000   0.3750000   0.2500000), wk =   0.0039062
        k(  348) = (  -0.3750000   0.3750000   0.3750000), wk =   0.0039062
        k(  349) = (  -0.3750000   0.3750000  -0.5000000), wk =   0.0039062
        k(  350) = (  -0.3750000   0.3750000  -0.3750000), wk =   0.0039062
        k(  351) = (  -0.3750000   0.3750000  -0.2500000), wk =   0.0039062
        k(  352) = (  -0.3750000   0.3750000  -0.1250000), wk =   0.0039062
        k(  353) = (  -0.3750000  -0.5000000  -0.0000000), wk =   0.0039062
        k(  354) = (  -0.3750000  -0.5000000   0.1250000), wk =   0.0039062
        k(  355) = (  -0.3750000  -0.5000000   0.2500000), wk =   0.0039062
        k(  356) = (  -0.3750000  -0.5000000   0.3750000), wk =   0.0039062
        k(  357) = (  -0.3750000  -0.5000000  -0.5000000), wk =   0.0039062
        k(  358) = (  -0.3750000  -0.5000000  -0.3750000), wk =   0.0039062
        k(  359) = (  -0.3750000  -0.5000000  -0.2500000), wk =   0.0039062
        k(  360) = (  -0.3750000  -0.5000000  -0.1250000), wk =   0.0039062
        k(  361) = (  -0.3750000  -0.3750000  -0.0000000), wk =   0.0039062
        k(  362) = (  -0.3750000  -0.3750000   0.1250000), wk =   0.0039062
        k(  363) = (  -0.3750000  -0.3750000   0.2500000), wk =   0.0039062
        k(  364) = (  -0.3750000  -0.3750000   0.3750000), wk =   0.0039062
        k(  365) = (  -0.3750000  -0.3750000  -0.5000000), wk =   0.0039062
        k(  366) = (  -0.3750000  -0.3750000  -0.3750000), wk =   0.0039062
        k(  367) = (  -0.3750000  -0.3750000  -0.2500000), wk =   0.0039062
        k(  368) = (  -0.3750000  -0.3750000  -0.1250000), wk =   0.0039062
        k(  369) = (  -0.3750000  -0.2500000  -0.0000000), wk =   0.0039062
        k(  370) = (  -0.3750000  -0.2500000   0.1250000), wk =   0.0039062
        k(  371) = (  -0.3750000  -0.2500000   0.2500000), wk =   0.0039062
        k(  372) = (  -0.3750000  -0.2500000   0.3750000), wk =   0.0039062
        k(  373) = (  -0.3750000  -0.2500000  -0.5000000), wk =   0.0039062
        k(  374) = (  -0.3750000  -0.2500000  -0.3750000), wk =   0.0039062
        k(  375) = (  -0.3750000  -0.2500000  -0.2500000), wk =   0.0039062
        k(  376) = (  -0.3750000  -0.2500000  -0.1250000), wk =   0.0039062
        k(  377) = (  -0.3750000  -0.1250000  -0.0000000), wk =   0.0039062
        k(  378) = (  -0.3750000  -0.1250000   0.1250000), wk =   0.0039062
        k(  379) = (  -0.3750000  -0.1250000   0.2500000), wk =   0.0039062
        k(  380) = (  -0.3750000  -0.1250000   0.3750000), wk =   0.0039062
        k(  381) = (  -0.3750000  -0.1250000  -0.5000000), wk =   0.0039062
        k(  382) = (  -0.3750000  -0.1250000  -0.3750000), wk =   0.0039062
        k(  383) = (  -0.3750000  -0.1250000  -0.2500000), wk =   0.0039062
        k(  384) = (  -0.3750000  -0.1250000  -0.1250000), wk =   0.0039062
        k(  385) = (  -0.2500000   0.0000000  -0.0000000), wk =   0.0039062
        k(  386) = (  -0.2500000   0.0000000   0.1250000), wk =   0.0039062
        k(  387) = (  -0.2500000   0.0000000   0.2500000), wk =   0.0039062
        k(  388) = (  -0.2500000  -0.0000000   0.3750000), wk =   0.0039062
        k(  389) = (  -0.2500000  -0.0000000  -0.5000000), wk =   0.0039062
        k(  390) = (  -0.2500000  -0.0000000  -0.3750000), wk =   0.0039062
        k(  391) = (  -0.2500000   0.0000000  -0.2500000), wk =   0.0039062
        k(  392) = (  -0.2500000   0.0000000  -0.1250000), wk =   0.0039062
        k(  393) = (  -0.2500000   0.1250000   0.0000000), wk =   0.0039062
        k(  394) = (  -0.2500000   0.1250000   0.1250000), wk =   0.0039062
        k(  395) = (  -0.2500000   0.1250000   0.2500000), wk =   0.0039062
        k(  396) = (  -0.2500000   0.1250000   0.3750000), wk =   0.0039062
        k(  397) = (  -0.2500000   0.1250000  -0.5000000), wk =   0.0039062
        k(  398) = (  -0.2500000   0.1250000  -0.3750000), wk =   0.0039062
        k(  399) = (  -0.2500000   0.1250000  -0.2500000), wk =   0.0039062
        k(  400) = (  -0.2500000   0.1250000  -0.1250000), wk =   0.0039062
        k(  401) = (  -0.2500000   0.2500000  -0.0000000), wk =   0.0039062
        k(  402) = (  -0.2500000   0.2500000   0.1250000), wk =   0.0039062
        k(  403) = (  -0.2500000   0.2500000   0.2500000), wk =   0.0039062
        k(  404) = (  -0.2500000   0.2500000   0.3750000), wk =   0.0039062
        k(  405) = (  -0.2500000   0.2500000  -0.5000000), wk =   0.0039062
        k(  406) = (  -0.2500000   0.2500000  -0.3750000), wk =   0.0039062
        k(  407) = (  -0.2500000   0.2500000  -0.2500000), wk =   0.0039062
        k(  408) = (  -0.2500000   0.2500000  -0.1250000), wk =   0.0039062
        k(  409) = (  -0.2500000   0.3750000  -0.0000000), wk =   0.0039062
        k(  410) = (  -0.2500000   0.3750000   0.1250000), wk =   0.0039062
        k(  411) = (  -0.2500000   0.3750000   0.2500000), wk =   0.0039062
        k(  412) = (  -0.2500000   0.3750000   0.3750000), wk =   0.0039062
        k(  413) = (  -0.2500000   0.3750000  -0.5000000), wk =   0.0039062
        k(  414) = (  -0.2500000   0.3750000  -0.3750000), wk =   0.0039062
        k(  415) = (  -0.2500000   0.3750000  -0.2500000), wk =   0.0039062
        k(  416) = (  -0.2500000   0.3750000  -0.1250000), wk =   0.0039062
        k(  417) = (  -0.2500000  -0.5000000  -0.0000000), wk =   0.0039062
        k(  418) = (  -0.2500000  -0.5000000   0.1250000), wk =   0.0039062
        k(  419) = (  -0.2500000  -0.5000000   0.2500000), wk =   0.0039062
        k(  420) = (  -0.2500000  -0.5000000   0.3750000), wk =   0.0039062
        k(  421) = (  -0.2500000  -0.5000000  -0.5000000), wk =   0.0039062
        k(  422) = (  -0.2500000  -0.5000000  -0.3750000), wk =   0.0039062
        k(  423) = (  -0.2500000  -0.5000000  -0.2500000), wk =   0.0039062
        k(  424) = (  -0.2500000  -0.5000000  -0.1250000), wk =   0.0039062
        k(  425) = (  -0.2500000  -0.3750000  -0.0000000), wk =   0.0039062
        k(  426) = (  -0.2500000  -0.3750000   0.1250000), wk =   0.0039062
        k(  427) = (  -0.2500000  -0.3750000   0.2500000), wk =   0.0039062
        k(  428) = (  -0.2500000  -0.3750000   0.3750000), wk =   0.0039062
        k(  429) = (  -0.2500000  -0.3750000  -0.5000000), wk =   0.0039062
        k(  430) = (  -0.2500000  -0.3750000  -0.3750000), wk =   0.0039062
        k(  431) = (  -0.2500000  -0.3750000  -0.2500000), wk =   0.0039062
        k(  432) = (  -0.2500000  -0.3750000  -0.1250000), wk =   0.0039062
        k(  433) = (  -0.2500000  -0.2500000  -0.0000000), wk =   0.0039062
        k(  434) = (  -0.2500000  -0.2500000   0.1250000), wk =   0.0039062
        k(  435) = (  -0.2500000  -0.2500000   0.2500000), wk =   0.0039062
        k(  436) = (  -0.2500000  -0.2500000   0.3750000), wk =   0.0039062
        k(  437) = (  -0.2500000  -0.2500000  -0.5000000), wk =   0.0039062
        k(  438) = (  -0.2500000  -0.2500000  -0.3750000), wk =   0.0039062
        k(  439) = (  -0.2500000  -0.2500000  -0.2500000), wk =   0.0039062
        k(  440) = (  -0.2500000  -0.2500000  -0.1250000), wk =   0.0039062
        k(  441) = (  -0.2500000  -0.1250000  -0.0000000), wk =   0.0039062
        k(  442) = (  -0.2500000  -0.1250000   0.1250000), wk =   0.0039062
        k(  443) = (  -0.2500000  -0.1250000   0.2500000), wk =   0.0039062
        k(  444) = (  -0.2500000  -0.1250000   0.3750000), wk =   0.0039062
        k(  445) = (  -0.2500000  -0.1250000  -0.5000000), wk =   0.0039062
        k(  446) = (  -0.2500000  -0.1250000  -0.3750000), wk =   0.0039062
        k(  447) = (  -0.2500000  -0.1250000  -0.2500000), wk =   0.0039062
        k(  448) = (  -0.2500000  -0.1250000  -0.1250000), wk =   0.0039062
        k(  449) = (  -0.1250000   0.0000000  -0.0000000), wk =   0.0039062
        k(  450) = (  -0.1250000   0.0000000   0.1250000), wk =   0.0039062
        k(  451) = (  -0.1250000   0.0000000   0.2500000), wk =   0.0039062
        k(  452) = (  -0.1250000  -0.0000000   0.3750000), wk =   0.0039062
        k(  453) = (  -0.1250000  -0.0000000  -0.5000000), wk =   0.0039062
        k(  454) = (  -0.1250000  -0.0000000  -0.3750000), wk =   0.0039062
        k(  455) = (  -0.1250000  -0.0000000  -0.2500000), wk =   0.0039062
        k(  456) = (  -0.1250000   0.0000000  -0.1250000), wk =   0.0039062
        k(  457) = (  -0.1250000   0.1250000  -0.0000000), wk =   0.0039062
        k(  458) = (  -0.1250000   0.1250000   0.1250000), wk =   0.0039062
        k(  459) = (  -0.1250000   0.1250000   0.2500000), wk =   0.0039062
        k(  460) = (  -0.1250000   0.1250000   0.3750000), wk =   0.0039062
        k(  461) = (  -0.1250000   0.1250000  -0.5000000), wk =   0.0039062
        k(  462) = (  -0.1250000   0.1250000  -0.3750000), wk =   0.0039062
        k(  463) = (  -0.1250000   0.1250000  -0.2500000), wk =   0.0039062
        k(  464) = (  -0.1250000   0.1250000  -0.1250000), wk =   0.0039062
        k(  465) = (  -0.1250000   0.2500000   0.0000000), wk =   0.0039062
        k(  466) = (  -0.1250000   0.2500000   0.1250000), wk =   0.0039062
        k(  467) = (  -0.1250000   0.2500000   0.2500000), wk =   0.0039062
        k(  468) = (  -0.1250000   0.2500000   0.3750000), wk =   0.0039062
        k(  469) = (  -0.1250000   0.2500000  -0.5000000), wk =   0.0039062
        k(  470) = (  -0.1250000   0.2500000  -0.3750000), wk =   0.0039062
        k(  471) = (  -0.1250000   0.2500000  -0.2500000), wk =   0.0039062
        k(  472) = (  -0.1250000   0.2500000  -0.1250000), wk =   0.0039062
        k(  473) = (  -0.1250000   0.3750000   0.0000000), wk =   0.0039062
        k(  474) = (  -0.1250000   0.3750000   0.1250000), wk =   0.0039062
        k(  475) = (  -0.1250000   0.3750000   0.2500000), wk =   0.0039062
        k(  476) = (  -0.1250000   0.3750000   0.3750000), wk =   0.0039062
        k(  477) = (  -0.1250000   0.3750000  -0.5000000), wk =   0.0039062
        k(  478) = (  -0.1250000   0.3750000  -0.3750000), wk =   0.0039062
        k(  479) = (  -0.1250000   0.3750000  -0.2500000), wk =   0.0039062
        k(  480) = (  -0.1250000   0.3750000  -0.1250000), wk =   0.0039062
        k(  481) = (  -0.1250000  -0.5000000  -0.0000000), wk =   0.0039062
        k(  482) = (  -0.1250000  -0.5000000   0.1250000), wk =   0.0039062
        k(  483) = (  -0.1250000  -0.5000000   0.2500000), wk =   0.0039062
        k(  484) = (  -0.1250000  -0.5000000   0.3750000), wk =   0.0039062
        k(  485) = (  -0.1250000  -0.5000000  -0.5000000), wk =   0.0039062
[...]

     0.5552   4.6719  12.7463  15.5243

     occupation numbers 
     1.0000   1.0000   0.0000   0.0000

          k =-0.2685-0.2581 0.2221 (   442 PWs)   bands (ev):

     1.0477   3.5680  13.6707  15.6890

     occupation numbers 
     1.0000   1.0000   0.0000   0.0000

          k =-0.2243-0.2821-0.2714 (   442 PWs)   bands (ev):

     1.1929   3.3175  14.1285  15.5697

     occupation numbers 
     1.0000   1.0000   0.0000   0.0000

          k =-0.2306-0.2787-0.2009 (   439 PWs)   bands (ev):

     0.7622   4.1382  14.0046  15.5225

     occupation numbers 
     1.0000   1.0000   0.0000   0.0000

          k =-0.2369-0.2752-0.1304 (   438 PWs)   bands (ev):

     0.3057   5.4654  12.4986  14.9755

     occupation numbers 
     1.0000   1.0000   0.0000   0.0000

          k =-0.2432-0.2718-0.0599 (   438 PWs)   bands (ev):

     0.0305   6.9970  10.4583  14.7205

     occupation numbers 
     1.0000   1.0000   0.0000   0.0000

          k =-0.1251-0.0682 0.0021 (   439 PWs)   bands (ev):

    -2.7831   4.0885   8.2396  22.2535

     occupation numbers 
     1.0000   1.0000   0.9997   0.0000

          k =-0.1314-0.0648 0.0726 (   440 PWs)   bands (ev):

    -2.6334   3.1662   9.4769  22.2746

     occupation numbers 
     1.0000   1.0000   0.0000   0.0000

          k =-0.1377-0.0613 0.1431 (   437 PWs)   bands (ev):

    -2.2633   1.8122  11.6353  22.3210

     occupation numbers 
     1.0000   1.0000   0.0000   0.0000

          k =-0.1441-0.0579 0.2136 (   442 PWs)   bands (ev):

    -1.7411   0.6535  13.9280  21.2330

     occupation numbers 
     1.0000   1.0000   0.0000   0.0000

          k =-0.0998-0.0819-0.2800 (   441 PWs)   bands (ev):

    -1.4613   0.1999  15.0432  20.1336

     occupation numbers 
     1.0000   1.0000   0.0000   0.0000

          k =-0.1061-0.0785-0.2095 (   439 PWs)   bands (ev):

    -1.8914   0.9257  13.4507  21.4586

     occupation numbers 
     1.0000   1.0000   0.0000   0.0000

          k =-0.1124-0.0751-0.1389 (   440 PWs)   bands (ev):

    -2.3885   2.1632  11.1018  22.3831

     occupation numbers 
     1.0000   1.0000   0.0000   0.0000

          k =-0.1188-0.0716-0.0684 (   440 PWs)   bands (ev):

    -2.6995   3.4903   9.0522  22.3415

     occupation numbers 
     1.0000   1.0000   0.0000   0.0000

          k =-0.1257 0.0638-0.0044 (   438 PWs)   bands (ev):

    -2.7946   4.0856   8.1449  22.7220

     occupation numbers 
     1.0000   1.0000   1.0000   0.0000

          k =-0.1320 0.0672 0.0661 (   439 PWs)   bands (ev):

    -2.6463   3.1749   9.3382  22.8111

     occupation numbers 
     1.0000   1.0000   0.0000   0.0000

          k =-0.1383 0.0706 0.1366 (   441 PWs)   bands (ev):

    -2.2793   1.8105  11.4950  23.0229

     occupation numbers 
     1.0000   1.0000   0.0000   0.0000

          k =-0.1447 0.0741 0.2072 (   441 PWs)   bands (ev):

    -1.7596   0.6391  13.8502  21.3233

     occupation numbers 
     1.0000   1.0000   0.0000   0.0000

          k =-0.1004 0.0500-0.2864 (   437 PWs)   bands (ev):

    -1.4773   0.1676  15.1887  19.7390

     occupation numbers 
     1.0000   1.0000   0.0000   0.0000

          k =-0.1067 0.0535-0.2159 (   440 PWs)   bands (ev):

    -1.9051   0.8793  13.5895  21.0863

     occupation numbers 
     1.0000   1.0000   0.0000   0.0000

          k =-0.1130 0.0569-0.1454 (   440 PWs)   bands (ev):

    -2.4008   2.1110  11.1663  22.5085

     occupation numbers 
     1.0000   1.0000   0.0000   0.0000

          k =-0.1194 0.0603-0.0749 (   436 PWs)   bands (ev):

    -2.7110   3.4443   9.0492  22.7038

     occupation numbers 
     1.0000   1.0000   0.0000   0.0000

          k =-0.1263 0.1957-0.0108 (   433 PWs)   bands (ev):

    -1.9581   5.2180   8.4080  17.6997

     occupation numbers 
     1.0000   1.0000   0.8200   0.0000

          k =-0.1326 0.1992 0.0597 (   433 PWs)   bands (ev):

    -1.8106   4.1987   9.6318  17.9053

     occupation numbers 
     1.0000   1.0000   0.0000   0.0000

          k =-0.1389 0.2026 0.1302 (   436 PWs)   bands (ev):

    -1.4489   2.7525  11.7732  18.3229

     occupation numbers 
     1.0000   1.0000   0.0000   0.0000

          k =-0.1453 0.2060 0.2007 (   440 PWs)   bands (ev):

    -0.9414   1.5509  14.0581  18.9551

     occupation numbers 
     1.0000   1.0000   0.0000   0.0000

          k =-0.1010 0.1820-0.2929 (   437 PWs)   bands (ev):

    -0.6709   1.0699  15.7510  18.1943

     occupation numbers 
     1.0000   1.0000   0.0000   0.0000

          k =-0.1073 0.1854-0.2224 (   436 PWs)   bands (ev):

    -1.0785   1.7611  14.3971  17.6737

     occupation numbers 
     1.0000   1.0000   0.0000   0.0000

          k =-0.1136 0.1889-0.1518 (   432 PWs)   bands (ev):

    -1.5675   3.0055  11.8291  17.7380

     occupation numbers 
     1.0000   1.0000   0.0000   0.0000

          k =-0.1200 0.1923-0.0813 (   432 PWs)   bands (ev):

    -1.8754   4.4195   9.5441  17.6744

     occupation numbers 
     1.0000   1.0000   0.0000   0.0000

          k =-0.1269 0.3277-0.0173 (   435 PWs)   bands (ev):

    -0.2764   7.4443   8.4522  13.2646

     occupation numbers 
     1.0000   1.0000   0.4484   0.0000

          k =-0.1332 0.3311 0.0532 (   439 PWs)   bands (ev):

    -0.1293   6.0532   9.6978  13.6657

     occupation numbers 
     1.0000   1.0000   0.0000   0.0000

          k =-0.1395 0.3345 0.1238 (   438 PWs)   bands (ev):

     0.2175   4.5000  11.1385  14.5743

     occupation numbers 
     1.0000   1.0000   0.0000   0.0000

          k =-0.1459 0.3380 0.1943 (   437 PWs)   bands (ev):

     0.6982   3.2970  12.1732  15.5754

     occupation numbers 
     1.0000   1.0000   0.0000   0.0000

          k =-0.1016 0.3139-0.2993 (   438 PWs)   bands (ev):

     0.9425   2.8284  12.7297  15.6702

     occupation numbers 
     1.0000   1.0000   0.0000   0.0000

          k =-0.1079 0.3174-0.2288 (   438 PWs)   bands (ev):

     0.5638   3.4752  12.6237  15.4086

     occupation numbers 
     1.0000   1.0000   0.0000   0.0000

          k =-0.1142 0.3208-0.1583 (   442 PWs)   bands (ev):

     0.0990   4.6916  11.7760  14.0204

     occupation numbers 
     1.0000   1.0000   0.0000   0.0000

          k =-0.1206 0.3242-0.0878 (   440 PWs)   bands (ev):

    -0.1974   6.1711  10.0513  13.3041

     occupation numbers 
     1.0000   1.0000   0.0000   0.0000

          k =-0.1227-0.5960 0.0279 (   435 PWs)   bands (ev):

     2.1131   6.1535  10.4624  12.7293

     occupation numbers 
     1.0000   1.0000   0.0000   0.0000

          k =-0.1290-0.5926 0.0984 (   439 PWs)   bands (ev):

     2.2490   6.0324   9.9814  12.5651

     occupation numbers 
     1.0000   1.0000   0.0000   0.0000

          k =-0.1353-0.5892 0.1689 (   443 PWs)   bands (ev):

     2.5660   5.6367   9.4132  12.1379

     occupation numbers 
     1.0000   1.0000   0.0000   0.0000

          k =-0.1417-0.5857 0.2394 (   444 PWs)   bands (ev):

     2.9799   5.0619   9.3029  11.4466

     occupation numbers 
     1.0000   1.0000   0.0000   0.0000

          k =-0.0974-0.6098-0.2542 (   441 PWs)   bands (ev):

     3.1619   4.7933   9.3495  11.2040

     occupation numbers 
     1.0000   1.0000   0.0000   0.0000

          k =-0.1037-0.6063-0.1837 (   440 PWs)   bands (ev):

     2.8475   5.1768   9.2969  11.7390

     occupation numbers 
     1.0000   1.0000   0.0000   0.0000

          k =-0.1100-0.6029-0.1132 (   443 PWs)   bands (ev):

     2.4440   5.7140   9.4479  12.8246

     occupation numbers 
     1.0000   1.0000   0.0000   0.0000

          k =-0.1164-0.5995-0.0427 (   439 PWs)   bands (ev):

     2.1809   6.0525   9.9849  13.7057

     occupation numbers 
     1.0000   1.0000   0.0000   0.0000

          k =-0.1233-0.4641 0.0214 (   434 PWs)   bands (ev):

     2.1824   6.0638  10.4548  13.5435

     occupation numbers 
     1.0000   1.0000   0.0000   0.0000

          k =-0.1296-0.4606 0.0919 (   441 PWs)   bands (ev):

     2.3079   5.9193  10.1136  13.5801

     occupation numbers 
     1.0000   1.0000   0.0000   0.0000

          k =-0.1359-0.4572 0.1624 (   446 PWs)   bands (ev):

     2.6268   5.5734   9.6194  12.2457

     occupation numbers 
     1.0000   1.0000   0.0000   0.0000

          k =-0.1423-0.4538 0.2329 (   442 PWs)   bands (ev):

     3.0448   5.0927   9.4053  11.2638

     occupation numbers 
     1.0000   1.0000   0.0000   0.0000

          k =-0.0980-0.4778-0.2606 (   443 PWs)   bands (ev):

     3.2442   4.8803   9.3484  10.8720

     occupation numbers 
     1.0000   1.0000   0.0000   0.0000

          k =-0.1043-0.4744-0.1901 (   443 PWs)   bands (ev):

     2.9500   5.2521   9.3113  11.1970

     occupation numbers 
     1.0000   1.0000   0.0000   0.0000

          k =-0.1106-0.4709-0.1196 (   441 PWs)   bands (ev):

     2.5441   5.7378   9.5414  11.9805

     occupation numbers 
     1.0000   1.0000   0.0000   0.0000

          k =-0.1170-0.4675-0.0491 (   441 PWs)   bands (ev):

     2.2731   6.0193  10.0938  12.8911

     occupation numbers 
     1.0000   1.0000   0.0000   0.0000

          k =-0.1239-0.3321 0.0150 (   440 PWs)   bands (ev):

    -0.2179   7.3297   8.7632  13.5021

     occupation numbers 
     1.0000   1.0000   0.0000   0.0000

          k =-0.1302-0.3287 0.0855 (   441 PWs)   bands (ev):

    -0.0746   5.9083  10.5043  13.4622

     occupation numbers 
     1.0000   1.0000   0.0000   0.0000

          k =-0.1365-0.3253 0.1560 (   439 PWs)   bands (ev):

     0.2845   4.4853  12.0228  14.1243

     occupation numbers 
     1.0000   1.0000   0.0000   0.0000

          k =-0.1429-0.3218 0.2265 (   437 PWs)   bands (ev):

     0.7743   3.3660  12.5505  15.5145

     occupation numbers 
     1.0000   1.0000   0.0000   0.0000

          k =-0.0986-0.3459-0.2671 (   439 PWs)   bands (ev):

     1.0195   2.9713  12.4123  15.2309

     occupation numbers 
     1.0000   1.0000   0.0000   0.0000

          k =-0.1049-0.3424-0.1966 (   434 PWs)   bands (ev):

     0.6403   3.6874  11.7660  15.0891

     occupation numbers 
     1.0000   1.0000   0.0000   0.0000

          k =-0.1112-0.3390-0.1261 (   442 PWs)   bands (ev):

     0.1671   4.9782  10.7170  14.6326

     occupation numbers 
     1.0000   1.0000   0.0000   0.0000

          k =-0.1176-0.3356-0.0555 (   445 PWs)   bands (ev):

    -0.1344   6.5375   9.3491  13.9310

     occupation numbers 
     1.0000   1.0000   0.0000   0.0000

          k =-0.1245-0.2002 0.0085 (   433 PWs)   bands (ev):

    -1.9231   5.2169   8.6774  17.5036

     occupation numbers 
     1.0000   1.0000   0.0001   0.0000

          k =-0.1308-0.1967 0.0790 (   434 PWs)   bands (ev):

    -1.7729   4.1593  10.1037  17.3846

     occupation numbers 
     1.0000   1.0000   0.0000   0.0000

          k =-0.1371-0.1933 0.1495 (   432 PWs)   bands (ev):

    -1.4028   2.7563  12.3493  17.3705

     occupation numbers 
     1.0000   1.0000   0.0000   0.0000

          k =-0.1435-0.1899 0.2200 (   438 PWs)   bands (ev):

    -0.8884   1.5926  14.6113  17.4377

     occupation numbers 
     1.0000   1.0000   0.0000   0.0000

          k =-0.0992-0.2139-0.2735 (   438 PWs)   bands (ev):

    -0.6249   1.1622  15.1389  18.6054

     occupation numbers 
     1.0000   1.0000   0.0000   0.0000

          k =-0.1055-0.2105-0.2030 (   434 PWs)   bands (ev):

    -1.0377   1.8972  13.5736  18.8848

     occupation numbers 
     1.0000   1.0000   0.0000   0.0000

          k =-0.1118-0.2070-0.1325 (   432 PWs)   bands (ev):

    -1.5283   3.1696  11.4259  18.2149

     occupation numbers 
     1.0000   1.0000   0.0000   0.0000

          k =-0.1182-0.2036-0.0620 (   433 PWs)   bands (ev):

    -1.8386   4.5793   9.4402  17.7690

     occupation numbers 
     1.0000   1.0000   0.0000   0.0000

     the Fermi energy is     8.4469 ev

!    total energy              =      -5.29740616 Ry
     estimated scf accuracy    <       0.00071666 Ry
     smearing contrib. (-TS)   =      -0.00004929 Ry
     internal energy E=F+TS    =      -5.29735687 Ry

     The total energy is F=E-TS. E is the sum of the following terms:
     one-electron contribution =       3.93512420 Ry
     hartree contribution      =       0.10756301 Ry
     xc contribution           =      -3.34887910 Ry
     ewald contribution        =      -5.99116498 Ry

     convergence has been achieved in   4 iterations

     Forces acting on atoms (cartesian axes, Ry/au):

     atom    1 type  1   force =    -0.08316495    0.05656806    0.15323341
     atom    2 type  1   force =     0.08316495   -0.05656806   -0.15323341
     The non-local contrib.  to forces
     atom    1 type  1   force =    -0.08252833    0.06515689    0.15852863
     atom    2 type  1   force =     0.08264908   -0.06514747   -0.15861278
     The ionic contribution  to forces
     atom    1 type  1   force =    -0.09567879    0.07766111    0.59865235
     atom    2 type  1   force =     0.09567879   -0.07766111   -0.59865235
     The local contribution  to forces
     atom    1 type  1   force =     0.09052458   -0.08243086   -0.58275218
     atom    2 type  1   force =    -0.09057706    0.08242793    0.58278263
     The core correction contribution to forces
     atom    1 type  1   force =     0.00372606   -0.00347174   -0.01050445
     atom    2 type  1   force =    -0.00363780    0.00346166    0.01052120
     The Hubbard contrib.    to forces
     atom    1 type  1   force =     0.00000000    0.00000000    0.00000000
     atom    2 type  1   force =     0.00000000    0.00000000    0.00000000
     The SCF correction term to forces
     atom    1 type  1   force =     0.00087059   -0.00035074   -0.01070834
     atom    2 type  1   force =    -0.00086902    0.00034755    0.01071047

     Total force =     0.259217     Total SCF correction =     0.015203


     Computing stress (Cartesian axis) and pressure

          total   stress  (Ry/bohr**3)                   (kbar)     P=      193.95
   0.00259072  -0.00072665  -0.00173716          381.11     -106.89     -255.54
  -0.00072665  -0.00016145   0.00113423         -106.89      -23.75      166.85
  -0.00173716   0.00113423   0.00152611         -255.54      166.85      224.50

     kinetic stress (kbar)   3205.85    -46.11   -137.27
                              -46.11   2891.91     49.30
                             -137.27     49.30   2995.08

     local   stress (kbar)   -384.69     91.78    -66.89
                               91.78   -142.29     -6.06
                              -66.89     -6.06    811.76

     nonloc. stress (kbar)   1042.48    -26.02     -5.91
                              -26.02   1020.18     16.92
                               -5.91     16.92   1036.99

     hartree stress (kbar)    145.90      2.00     26.87
                                2.00    144.63    -14.69
                               26.87    -14.69   -137.22

     exc-cor stress (kbar)    110.93     -1.80     -0.95
                               -1.80    106.42      0.93
                               -0.95      0.93    106.54

     corecor stress (kbar)  -1286.25      5.91      4.00
                                5.91  -1272.17     -3.57
                                4.00     -3.57  -1275.27

     ewald   stress (kbar)  -2453.11   -132.67    -75.40
                             -132.67  -2772.43    124.01
                              -75.40    124.01  -3313.38

     hubbard stress (kbar)      0.00      0.00      0.00
                                0.00      0.00      0.00
                                0.00      0.00      0.00

     DFT-D   stress (kbar)      0.00      0.00      0.00
                                0.00      0.00      0.00
                                0.00      0.00      0.00

     XDM     stress (kbar)      0.00      0.00      0.00
                                0.00      0.00      0.00
                                0.00      0.00      0.00

     dft-nl  stress (kbar)      0.00      0.00      0.00
                                0.00      0.00      0.00
                                0.00      0.00      0.00

     TS-vdW  stress (kbar)      0.00      0.00      0.00
                                0.00      0.00      0.00
                                0.00      0.00      0.00

     MDB     stress (kbar)      0.00      0.00      0.00
                                0.00      0.00      0.00
                                0.00      0.00      0.00

     3D-RISM stress (kbar)      0.00      0.00      0.00
                                0.00      0.00      0.00
                                0.00      0.00      0.00


     Writing all to output data dir ../tmp/Be/Be.save/ :
     XML data file, charge density, pseudopotentials, collected wavefunctions

     init_run     :      1.18s CPU      1.22s WALL (       1 calls)
     electrons    :      6.07s CPU      6.92s WALL (       1 calls)
     forces       :      0.13s CPU      0.14s WALL (       1 calls)
     stress       :      1.22s CPU      1.27s WALL (       1 calls)

     Called by init_run:
     wfcinit      :      0.81s CPU      0.84s WALL (       1 calls)
     wfcinit:atom :      0.03s CPU      0.03s WALL (     512 calls)
     wfcinit:wfcr :      0.63s CPU      0.65s WALL (     512 calls)
     potinit      :      0.02s CPU      0.02s WALL (       1 calls)
     hinit0       :      0.30s CPU      0.32s WALL (       1 calls)

     Called by electrons:
     c_bands      :      5.02s CPU      5.63s WALL (       4 calls)
     sum_band     :      1.01s CPU      1.23s WALL (       4 calls)
     v_of_rho     :      0.02s CPU      0.02s WALL (       5 calls)
     v_h          :      0.00s CPU      0.00s WALL (       5 calls)
     v_xc         :      0.03s CPU      0.03s WALL (       7 calls)
     newd         :      0.02s CPU      0.03s WALL (       5 calls)
     mix_rho      :      0.00s CPU      0.01s WALL (       4 calls)

     Called by c_bands:
     init_us_2    :      0.57s CPU      0.62s WALL (    5632 calls)
     cegterg      :      4.48s CPU      5.02s WALL (    2048 calls)

     Called by sum_band:
     sum_band:wei :      0.00s CPU      0.01s WALL (       4 calls)
     sum_band:loo :      0.99s CPU      1.20s WALL (       4 calls)
     sum_band:buf :      0.01s CPU      0.01s WALL (    2048 calls)
     sum_band:ini :      0.23s CPU      0.25s WALL (    2048 calls)
     sum_band:cal :      0.05s CPU      0.07s WALL (    2048 calls)
     sum_band:bec :      0.01s CPU      0.01s WALL (    2048 calls)
     addusdens    :      0.02s CPU      0.02s WALL (       4 calls)
                                        0.00s GPU  (       4 calls)
     addusd:skk   :      0.00s CPU      0.00s WALL (       4 calls)
                                        0.00s GPU  (       4 calls)

     Called by *egterg:
     cdiaghg      :      0.26s CPU      0.29s WALL (    7323 calls)
     cegterg:over :      0.08s CPU      0.10s WALL (    5275 calls)
     cegterg:upda :      0.10s CPU      0.11s WALL (    5275 calls)
     cegterg:last :      0.11s CPU      0.12s WALL (    4159 calls)
     h_psi        :      4.23s CPU      4.69s WALL (    7835 calls)
     s_psi        :      0.13s CPU      0.15s WALL (    7835 calls)
     g_psi        :      0.04s CPU      0.04s WALL (    5275 calls)

     Called by h_psi:
     h_psi:calbec :      0.14s CPU      0.16s WALL (    7835 calls)
     vloc_psi     :      3.88s CPU      4.31s WALL (    7835 calls)
     add_vuspsi   :      0.14s CPU      0.16s WALL (    7835 calls)

     General routines
     calbec       :      0.22s CPU      0.25s WALL (   12443 calls)
     fft          :      0.12s CPU      0.12s WALL (      80 calls)
     ffts         :      0.00s CPU      0.00s WALL (       4 calls)
     fftw         :      3.81s CPU      4.31s WALL (   60494 calls)


     PWSCF        :      8.74s CPU      9.74s WALL


   This run was terminated on:  18:50: 2   6May2024            

=------------------------------------------------------------------------------=
   JOB DONE.
=------------------------------------------------------------------------------=
