
     Program PWSCF v.7.3.1 starts on  6May2024 at 18:50: 6 

     This program is part of the open-source Quantum ESPRESSO suite
     for quantum simulation of materials; please cite
         "P. Giannozzi et al., J. Phys.:Condens. Matter 21 395502 (2009);
         "P. Giannozzi et al., J. Phys.:Condens. Matter 29 465901 (2017);
         "P. Giannozzi et al., J. Chem. Phys. 152 154105 (2020);
          URL http://www.quantum-espresso.org", 
     in publications or presentations arising from this work. More details at
     http://www.quantum-espresso.org/quote

     Serial version
     2162 MiB available memory on the printing compute node when the environment starts

     Reading input from Be3.pw.in

     Current dimensions of program PWSCF are:
     Max number of different atomic species (ntypx) = 10
     Max number of k-points (npk) =  40000
     Max angular momentum in pseudopotentials (lmaxx) =  4


     G-vector sticks info
     --------------------
     sticks:   dense  smooth     PW     G-vecs:    dense   smooth      PW
     Sum         203     203     79                 3551     3551     869

     Using Slab Decomposition



     bravais-lattice index     =            0
     lattice parameter (alat)  =       4.3311  a.u.
     unit-cell volume          =     103.7257 (a.u.)^3
     number of atoms/cell      =            2
     number of atomic types    =            1
     number of electrons       =         4.00
     number of Kohn-Sham states=            4
     kinetic-energy cutoff     =      40.0000  Ry
     charge density cutoff     =     160.0000  Ry
     scf convergence threshold =      2.0E-02
     mixing beta               =       0.1000
     number of iterations used =            8  plain     mixing
     Exchange-correlation= PBE
                           (   1   4   3   4   0   0   0)

     celldm(1)=   4.331094  celldm(2)=   0.000000  celldm(3)=   0.000000
     celldm(4)=   0.000000  celldm(5)=   0.000000  celldm(6)=   0.000000

     crystal axes: (cart. coord. in units of alat)
               a(1) = (   0.998389  -0.031348   0.047299 )  
               a(2) = (  -0.449340   0.850792  -0.011790 )  
               a(3) = (  -0.070257  -0.038205   1.524598 )  

     reciprocal axes: (cart. coord. in units 2 pi/alat)
               b(1) = (  1.015627  0.537231  0.060265 )  
               b(2) = (  0.036019  1.194837  0.031602 )  
               b(3) = ( -0.031230 -0.007427  0.654286 )  


     PseudoPot. # 1 for Be read from file:
     ../pseudo/Be.pbe-n-rrkjus_psl.1.0.0.UPF
     MD5 check sum: 734a25375992c446e1da9bf329ae4716
     Pseudo is Ultrasoft + core correction, Zval =  2.0
     Generated using &quot;atomic&quot; code by A. Dal Corso  v.6.6
     Using radial grid of 1041 points,  4 beta functions with: 
                l(1) =   0
                l(2) =   0
                l(3) =   1
                l(4) =   1
     Q(r) pseudized with 0 coefficients 


     atomic species   valence    mass     pseudopotential
     Be                2.00     9.01218     Be( 1.00)

     No symmetry found


                                    s                        frac. trans.

      isym =  1     identity                                     

 cryst.   s( 1) = (     1          0          0      )
                  (     0          1          0      )
                  (     0          0          1      )

 cart.    s( 1) = (  1.0000000 -0.0000000  0.0000000 )
                  (  0.0000000  1.0000000  0.0000000 )
                  (  0.0000000 -0.0000000  1.0000000 )


   Cartesian axes

     site n.     atom                  positions (alat units)
         1        Be     tau(   1) = (   0.7648111   0.1400591   1.1683118  )
         2        Be     tau(   2) = (  -0.2718119   0.7138406   0.3892836  )

   Crystallographic axes

     site n.     atom                  positions (cryst. coord.)
         1        Be     tau(   1) = (  0.9224155  0.2318158  0.7394841  )
         2        Be     tau(   2) = (  0.1308983  0.8554345  0.2578898  )

     number of k points=   512  Fermi-Dirac smearing, width (Ry)=  0.0019
                       cart. coord. in units 2pi/alat
        k(    1) = (   0.0000000   0.0000000   0.0000000), wk =   0.0039062
        k(    2) = (  -0.0039038  -0.0009284   0.0817857), wk =   0.0039062
        k(    3) = (  -0.0078075  -0.0018567   0.1635714), wk =   0.0039062
        k(    4) = (  -0.0117113  -0.0027851   0.2453571), wk =   0.0039062
        k(    5) = (   0.0156151   0.0037134  -0.3271428), wk =   0.0039062
        k(    6) = (   0.0117113   0.0027851  -0.2453571), wk =   0.0039062
        k(    7) = (   0.0078075   0.0018567  -0.1635714), wk =   0.0039062
        k(    8) = (   0.0039038   0.0009284  -0.0817857), wk =   0.0039062
        k(    9) = (   0.0045023   0.1493546   0.0039502), wk =   0.0039062
        k(   10) = (   0.0005986   0.1484262   0.0857359), wk =   0.0039062
        k(   11) = (  -0.0033052   0.1474979   0.1675216), wk =   0.0039062
        k(   12) = (  -0.0072090   0.1465695   0.2493073), wk =   0.0039062
        k(   13) = (   0.0201174   0.1530680  -0.3231926), wk =   0.0039062
        k(   14) = (   0.0162136   0.1521396  -0.2414069), wk =   0.0039062
        k(   15) = (   0.0123099   0.1512113  -0.1596212), wk =   0.0039062
        k(   16) = (   0.0084061   0.1502829  -0.0778355), wk =   0.0039062
        k(   17) = (   0.0090047   0.2987091   0.0079004), wk =   0.0039062
        k(   18) = (   0.0051009   0.2977808   0.0896861), wk =   0.0039062
        k(   19) = (   0.0011971   0.2968524   0.1714718), wk =   0.0039062
        k(   20) = (  -0.0027066   0.2959241   0.2532575), wk =   0.0039062
        k(   21) = (   0.0246198   0.3024225  -0.3192423), wk =   0.0039062
        k(   22) = (   0.0207160   0.3014942  -0.2374567), wk =   0.0039062
        k(   23) = (   0.0168122   0.3005658  -0.1556710), wk =   0.0039062
        k(   24) = (   0.0129085   0.2996375  -0.0738853), wk =   0.0039062
        k(   25) = (   0.0135070   0.4480637   0.0118506), wk =   0.0039062
        k(   26) = (   0.0096033   0.4471354   0.0936363), wk =   0.0039062
        k(   27) = (   0.0056995   0.4462070   0.1754220), wk =   0.0039062
        k(   28) = (   0.0017957   0.4452786   0.2572077), wk =   0.0039062
        k(   29) = (   0.0291221   0.4517771  -0.3152921), wk =   0.0039062
        k(   30) = (   0.0252183   0.4508488  -0.2335065), wk =   0.0039062
        k(   31) = (   0.0213146   0.4499204  -0.1517208), wk =   0.0039062
        k(   32) = (   0.0174108   0.4489921  -0.0699351), wk =   0.0039062
        k(   33) = (  -0.0180094  -0.5974183  -0.0158008), wk =   0.0039062
        k(   34) = (  -0.0219131  -0.5983466   0.0659849), wk =   0.0039062
        k(   35) = (  -0.0258169  -0.5992750   0.1477706), wk =   0.0039062
        k(   36) = (  -0.0297207  -0.6002033   0.2295562), wk =   0.0039062
        k(   37) = (  -0.0023943  -0.5937049  -0.3429436), wk =   0.0039062
        k(   38) = (  -0.0062981  -0.5946332  -0.2611579), wk =   0.0039062
        k(   39) = (  -0.0102018  -0.5955616  -0.1793722), wk =   0.0039062
        k(   40) = (  -0.0141056  -0.5964899  -0.0975865), wk =   0.0039062
        k(   41) = (  -0.0135070  -0.4480637  -0.0118506), wk =   0.0039062
        k(   42) = (  -0.0174108  -0.4489921   0.0699351), wk =   0.0039062
        k(   43) = (  -0.0213146  -0.4499204   0.1517208), wk =   0.0039062
        k(   44) = (  -0.0252183  -0.4508488   0.2335065), wk =   0.0039062
        k(   45) = (   0.0021080  -0.4443503  -0.3389934), wk =   0.0039062
        k(   46) = (  -0.0017957  -0.4452786  -0.2572077), wk =   0.0039062
        k(   47) = (  -0.0056995  -0.4462070  -0.1754220), wk =   0.0039062
        k(   48) = (  -0.0096033  -0.4471354  -0.0936363), wk =   0.0039062
        k(   49) = (  -0.0090047  -0.2987091  -0.0079004), wk =   0.0039062
        k(   50) = (  -0.0129085  -0.2996375   0.0738853), wk =   0.0039062
        k(   51) = (  -0.0168122  -0.3005658   0.1556710), wk =   0.0039062
        k(   52) = (  -0.0207160  -0.3014942   0.2374567), wk =   0.0039062
        k(   53) = (   0.0066104  -0.2949957  -0.3350432), wk =   0.0039062
        k(   54) = (   0.0027066  -0.2959241  -0.2532575), wk =   0.0039062
        k(   55) = (  -0.0011971  -0.2968524  -0.1714718), wk =   0.0039062
        k(   56) = (  -0.0051009  -0.2977808  -0.0896861), wk =   0.0039062
        k(   57) = (  -0.0045023  -0.1493546  -0.0039502), wk =   0.0039062
        k(   58) = (  -0.0084061  -0.1502829   0.0778355), wk =   0.0039062
        k(   59) = (  -0.0123099  -0.1512113   0.1596212), wk =   0.0039062
        k(   60) = (  -0.0162136  -0.1521396   0.2414069), wk =   0.0039062
        k(   61) = (   0.0111127  -0.1456412  -0.3310930), wk =   0.0039062
        k(   62) = (   0.0072090  -0.1465695  -0.2493073), wk =   0.0039062
        k(   63) = (   0.0033052  -0.1474979  -0.1675216), wk =   0.0039062
        k(   64) = (  -0.0005986  -0.1484262  -0.0857359), wk =   0.0039062
        k(   65) = (   0.1269534   0.0671539   0.0075332), wk =   0.0039062
        k(   66) = (   0.1230496   0.0662256   0.0893188), wk =   0.0039062
        k(   67) = (   0.1191458   0.0652972   0.1711045), wk =   0.0039062
        k(   68) = (   0.1152421   0.0643689   0.2528902), wk =   0.0039062
        k(   69) = (   0.1425684   0.0708673  -0.3196096), wk =   0.0039062
        k(   70) = (   0.1386647   0.0699390  -0.2378239), wk =   0.0039062
        k(   71) = (   0.1347609   0.0690106  -0.1560382), wk =   0.0039062
        k(   72) = (   0.1308571   0.0680823  -0.0742525), wk =   0.0039062
        k(   73) = (   0.1314557   0.2165085   0.0114834), wk =   0.0039062
        k(   74) = (   0.1275519   0.2155801   0.0932690), wk =   0.0039062
        k(   75) = (   0.1236482   0.2146518   0.1750547), wk =   0.0039062
        k(   76) = (   0.1197444   0.2137234   0.2568404), wk =   0.0039062
        k(   77) = (   0.1470708   0.2202219  -0.3156594), wk =   0.0039062
        k(   78) = (   0.1431670   0.2192935  -0.2338737), wk =   0.0039062
        k(   79) = (   0.1392632   0.2183652  -0.1520880), wk =   0.0039062
        k(   80) = (   0.1353595   0.2174368  -0.0703023), wk =   0.0039062
        k(   81) = (   0.1359580   0.3658631   0.0154336), wk =   0.0039062
        k(   82) = (   0.1320543   0.3649347   0.0972193), wk =   0.0039062
        k(   83) = (   0.1281505   0.3640063   0.1790049), wk =   0.0039062
        k(   84) = (   0.1242467   0.3630780   0.2607906), wk =   0.0039062
        k(   85) = (   0.1515731   0.3695765  -0.3117092), wk =   0.0039062
        k(   86) = (   0.1476694   0.3686481  -0.2299235), wk =   0.0039062
        k(   87) = (   0.1437656   0.3677198  -0.1481378), wk =   0.0039062
        k(   88) = (   0.1398618   0.3667914  -0.0663521), wk =   0.0039062
        k(   89) = (   0.1404604   0.5152176   0.0193838), wk =   0.0039062
        k(   90) = (   0.1365566   0.5142893   0.1011695), wk =   0.0039062
        k(   91) = (   0.1326529   0.5133609   0.1829551), wk =   0.0039062
        k(   92) = (   0.1287491   0.5124326   0.2647408), wk =   0.0039062
        k(   93) = (   0.1560755   0.5189310  -0.3077590), wk =   0.0039062
        k(   94) = (   0.1521717   0.5180027  -0.2259733), wk =   0.0039062
        k(   95) = (   0.1482679   0.5170743  -0.1441876), wk =   0.0039062
        k(   96) = (   0.1443642   0.5161460  -0.0624019), wk =   0.0039062
        k(   97) = (   0.1089440  -0.5302644  -0.0082677), wk =   0.0039062
        k(   98) = (   0.1050402  -0.5311927   0.0735180), wk =   0.0039062
        k(   99) = (   0.1011365  -0.5321211   0.1553037), wk =   0.0039062
        k(  100) = (   0.0972327  -0.5330494   0.2370894), wk =   0.0039062
        k(  101) = (   0.1245591  -0.5265509  -0.3354104), wk =   0.0039062
        k(  102) = (   0.1206553  -0.5274793  -0.2536247), wk =   0.0039062
        k(  103) = (   0.1167515  -0.5284076  -0.1718391), wk =   0.0039062
        k(  104) = (   0.1128478  -0.5293360  -0.0900534), wk =   0.0039062
        k(  105) = (   0.1134463  -0.3809098  -0.0043175), wk =   0.0039062
        k(  106) = (   0.1095426  -0.3818381   0.0774682), wk =   0.0039062
        k(  107) = (   0.1056388  -0.3827665   0.1592539), wk =   0.0039062
        k(  108) = (   0.1017350  -0.3836948   0.2410396), wk =   0.0039062
        k(  109) = (   0.1290614  -0.3771964  -0.3314602), wk =   0.0039062
        k(  110) = (   0.1251576  -0.3781247  -0.2496745), wk =   0.0039062
        k(  111) = (   0.1212539  -0.3790531  -0.1678888), wk =   0.0039062
        k(  112) = (   0.1173501  -0.3799814  -0.0861032), wk =   0.0039062
        k(  113) = (   0.1179487  -0.2315552  -0.0003673), wk =   0.0039062
        k(  114) = (   0.1140449  -0.2324836   0.0814184), wk =   0.0039062
        k(  115) = (   0.1101411  -0.2334119   0.1632041), wk =   0.0039062
        k(  116) = (   0.1062374  -0.2343403   0.2449898), wk =   0.0039062
        k(  117) = (   0.1335638  -0.2278418  -0.3275100), wk =   0.0039062
        k(  118) = (   0.1296600  -0.2287702  -0.2457243), wk =   0.0039062
        k(  119) = (   0.1257562  -0.2296985  -0.1639386), wk =   0.0039062
        k(  120) = (   0.1218525  -0.2306269  -0.0821530), wk =   0.0039062
        k(  121) = (   0.1224510  -0.0822007   0.0035829), wk =   0.0039062
        k(  122) = (   0.1185473  -0.0831290   0.0853686), wk =   0.0039062
        k(  123) = (   0.1146435  -0.0840574   0.1671543), wk =   0.0039062
        k(  124) = (   0.1107397  -0.0849857   0.2489400), wk =   0.0039062
        k(  125) = (   0.1380661  -0.0784872  -0.3235598), wk =   0.0039062
        k(  126) = (   0.1341623  -0.0794156  -0.2417741), wk =   0.0039062
        k(  127) = (   0.1302586  -0.0803439  -0.1599884), wk =   0.0039062
        k(  128) = (   0.1263548  -0.0812723  -0.0782027), wk =   0.0039062
        k(  129) = (   0.2539067   0.1343078   0.0150663), wk =   0.0039062
        k(  130) = (   0.2500030   0.1333795   0.0968520), wk =   0.0039062
        k(  131) = (   0.2460992   0.1324511   0.1786377), wk =   0.0039062
        k(  132) = (   0.2421954   0.1315228   0.2604234), wk =   0.0039062
        k(  133) = (   0.2695218   0.1380212  -0.3120765), wk =   0.0039062
        k(  134) = (   0.2656180   0.1370929  -0.2302908), wk =   0.0039062
        k(  135) = (   0.2617143   0.1361645  -0.1485051), wk =   0.0039062
        k(  136) = (   0.2578105   0.1352362  -0.0667194), wk =   0.0039062
        k(  137) = (   0.2584091   0.2836624   0.0190165), wk =   0.0039062
        k(  138) = (   0.2545053   0.2827341   0.1008022), wk =   0.0039062
        k(  139) = (   0.2506015   0.2818057   0.1825879), wk =   0.0039062
        k(  140) = (   0.2466978   0.2808773   0.2643736), wk =   0.0039062
        k(  141) = (   0.2740241   0.2873758  -0.3081263), wk =   0.0039062
        k(  142) = (   0.2701204   0.2864475  -0.2263406), wk =   0.0039062
        k(  143) = (   0.2662166   0.2855191  -0.1445549), wk =   0.0039062
        k(  144) = (   0.2623128   0.2845908  -0.0627692), wk =   0.0039062
        k(  145) = (   0.2629114   0.4330170   0.0229667), wk =   0.0039062
        k(  146) = (   0.2590076   0.4320886   0.1047524), wk =   0.0039062
        k(  147) = (   0.2551039   0.4311603   0.1865381), wk =   0.0039062
        k(  148) = (   0.2512001   0.4302319   0.2683238), wk =   0.0039062
        k(  149) = (   0.2785265   0.4367304  -0.3041760), wk =   0.0039062
        k(  150) = (   0.2746227   0.4358020  -0.2223904), wk =   0.0039062
        k(  151) = (   0.2707189   0.4348737  -0.1406047), wk =   0.0039062
        k(  152) = (   0.2668152   0.4339453  -0.0588190), wk =   0.0039062
        k(  153) = (   0.2674138   0.5823715   0.0269169), wk =   0.0039062
        k(  154) = (   0.2635100   0.5814432   0.1087026), wk =   0.0039062
        k(  155) = (   0.2596062   0.5805148   0.1904883), wk =   0.0039062
        k(  156) = (   0.2557024   0.5795865   0.2722740), wk =   0.0039062
        k(  157) = (   0.2830288   0.5860850  -0.3002258), wk =   0.0039062
        k(  158) = (   0.2791251   0.5851566  -0.2184401), wk =   0.0039062
        k(  159) = (   0.2752213   0.5842282  -0.1366545), wk =   0.0039062
        k(  160) = (   0.2713175   0.5832999  -0.0548688), wk =   0.0039062
        k(  161) = (   0.2358974  -0.4631104  -0.0007345), wk =   0.0039062
        k(  162) = (   0.2319936  -0.4640388   0.0810512), wk =   0.0039062
        k(  163) = (   0.2280898  -0.4649671   0.1628369), wk =   0.0039062
        k(  164) = (   0.2241861  -0.4658955   0.2446225), wk =   0.0039062
        k(  165) = (   0.2515124  -0.4593970  -0.3278773), wk =   0.0039062
        k(  166) = (   0.2476087  -0.4603254  -0.2460916), wk =   0.0039062
        k(  167) = (   0.2437049  -0.4612537  -0.1643059), wk =   0.0039062
        k(  168) = (   0.2398011  -0.4621821  -0.0825202), wk =   0.0039062
        k(  169) = (   0.2403997  -0.3137559   0.0032157), wk =   0.0039062
        k(  170) = (   0.2364959  -0.3146842   0.0850014), wk =   0.0039062
        k(  171) = (   0.2325922  -0.3156126   0.1667871), wk =   0.0039062
        k(  172) = (   0.2286884  -0.3165409   0.2485728), wk =   0.0039062
        k(  173) = (   0.2560148  -0.3100425  -0.3239271), wk =   0.0039062
        k(  174) = (   0.2521110  -0.3109708  -0.2421414), wk =   0.0039062
        k(  175) = (   0.2482072  -0.3118992  -0.1603557), wk =   0.0039062
        k(  176) = (   0.2443035  -0.3128275  -0.0785700), wk =   0.0039062
        k(  177) = (   0.2449020  -0.1644013   0.0071659), wk =   0.0039062
        k(  178) = (   0.2409983  -0.1653297   0.0889516), wk =   0.0039062
        k(  179) = (   0.2370945  -0.1662580   0.1707373), wk =   0.0039062
        k(  180) = (   0.2331907  -0.1671864   0.2525230), wk =   0.0039062
        k(  181) = (   0.2605171  -0.1606879  -0.3199769), wk =   0.0039062
        k(  182) = (   0.2566134  -0.1616162  -0.2381912), wk =   0.0039062
        k(  183) = (   0.2527096  -0.1625446  -0.1564055), wk =   0.0039062
        k(  184) = (   0.2488058  -0.1634729  -0.0746198), wk =   0.0039062
        k(  185) = (   0.2494044  -0.0150467   0.0111161), wk =   0.0039062
        k(  186) = (   0.2455006  -0.0159751   0.0929018), wk =   0.0039062
        k(  187) = (   0.2415969  -0.0169034   0.1746875), wk =   0.0039062
        k(  188) = (   0.2376931  -0.0178318   0.2564732), wk =   0.0039062
        k(  189) = (   0.2650195  -0.0113333  -0.3160267), wk =   0.0039062
        k(  190) = (   0.2611157  -0.0122617  -0.2342410), wk =   0.0039062
        k(  191) = (   0.2572119  -0.0131900  -0.1524553), wk =   0.0039062
        k(  192) = (   0.2533082  -0.0141184  -0.0706696), wk =   0.0039062
        k(  193) = (   0.3808601   0.2014618   0.0225995), wk =   0.0039062
        k(  194) = (   0.3769563   0.2005334   0.1043851), wk =   0.0039062
        k(  195) = (   0.3730526   0.1996050   0.1861708), wk =   0.0039062
        k(  196) = (   0.3691488   0.1986767   0.2679565), wk =   0.0039062
        k(  197) = (   0.3964752   0.2051752  -0.3045433), wk =   0.0039062
        k(  198) = (   0.3925714   0.2042468  -0.2227576), wk =   0.0039062
        k(  199) = (   0.3886676   0.2033185  -0.1409719), wk =   0.0039062
        k(  200) = (   0.3847639   0.2023901  -0.0591862), wk =   0.0039062
        k(  201) = (   0.3853624   0.3508163   0.0265497), wk =   0.0039062
        k(  202) = (   0.3814587   0.3498880   0.1083353), wk =   0.0039062
        k(  203) = (   0.3775549   0.3489596   0.1901210), wk =   0.0039062
        k(  204) = (   0.3736511   0.3480313   0.2719067), wk =   0.0039062
        k(  205) = (   0.4009775   0.3545297  -0.3005931), wk =   0.0039062
        k(  206) = (   0.3970737   0.3536014  -0.2188074), wk =   0.0039062
        k(  207) = (   0.3931700   0.3526730  -0.1370217), wk =   0.0039062
        k(  208) = (   0.3892662   0.3517447  -0.0552360), wk =   0.0039062
        k(  209) = (   0.3898648   0.5001709   0.0304999), wk =   0.0039062
        k(  210) = (   0.3859610   0.4992425   0.1122856), wk =   0.0039062
        k(  211) = (   0.3820572   0.4983142   0.1940712), wk =   0.0039062
        k(  212) = (   0.3781535   0.4973858   0.2758569), wk =   0.0039062
        k(  213) = (   0.4054798   0.5038843  -0.2966429), wk =   0.0039062
        k(  214) = (   0.4015761   0.5029559  -0.2148572), wk =   0.0039062
        k(  215) = (   0.3976723   0.5020276  -0.1330715), wk =   0.0039062
        k(  216) = (   0.3937685   0.5010992  -0.0512858), wk =   0.0039062
        k(  217) = (   0.3943671   0.6495255   0.0344501), wk =   0.0039062
        k(  218) = (   0.3904634   0.6485971   0.1162358), wk =   0.0039062
        k(  219) = (   0.3865596   0.6476688   0.1980214), wk =   0.0039062
        k(  220) = (   0.3826558   0.6467404   0.2798071), wk =   0.0039062
        k(  221) = (   0.4099822   0.6532389  -0.2926927), wk =   0.0039062
        k(  222) = (   0.4060784   0.6523105  -0.2109070), wk =   0.0039062
        k(  223) = (   0.4021747   0.6513822  -0.1291213), wk =   0.0039062
        k(  224) = (   0.3982709   0.6504538  -0.0473356), wk =   0.0039062
        k(  225) = (   0.3628507  -0.3959565   0.0067986), wk =   0.0039062
        k(  226) = (   0.3589470  -0.3968849   0.0885843), wk =   0.0039062
        k(  227) = (   0.3550432  -0.3978132   0.1703700), wk =   0.0039062
        k(  228) = (   0.3511394  -0.3987416   0.2521557), wk =   0.0039062
        k(  229) = (   0.3784658  -0.3922431  -0.3203441), wk =   0.0039062
        k(  230) = (   0.3745620  -0.3931715  -0.2385584), wk =   0.0039062
        k(  231) = (   0.3706583  -0.3940998  -0.1567728), wk =   0.0039062
        k(  232) = (   0.3667545  -0.3950282  -0.0749871), wk =   0.0039062
        k(  233) = (   0.3673531  -0.2466020   0.0107488), wk =   0.0039062
        k(  234) = (   0.3634493  -0.2475303   0.0925345), wk =   0.0039062
        k(  235) = (   0.3595455  -0.2484587   0.1743202), wk =   0.0039062
        k(  236) = (   0.3556418  -0.2493870   0.2561059), wk =   0.0039062
        k(  237) = (   0.3829681  -0.2428885  -0.3163939), wk =   0.0039062
        k(  238) = (   0.3790644  -0.2438169  -0.2346082), wk =   0.0039062
        k(  239) = (   0.3751606  -0.2447452  -0.1528225), wk =   0.0039062
        k(  240) = (   0.3712568  -0.2456736  -0.0710369), wk =   0.0039062
        k(  241) = (   0.3718554  -0.0972474   0.0146990), wk =   0.0039062
        k(  242) = (   0.3679516  -0.0981757   0.0964847), wk =   0.0039062
        k(  243) = (   0.3640479  -0.0991041   0.1782704), wk =   0.0039062
        k(  244) = (   0.3601441  -0.1000324   0.2600561), wk =   0.0039062
        k(  245) = (   0.3874705  -0.0935340  -0.3124437), wk =   0.0039062
        k(  246) = (   0.3835667  -0.0944623  -0.2306580), wk =   0.0039062
        k(  247) = (   0.3796629  -0.0953907  -0.1488723), wk =   0.0039062
        k(  248) = (   0.3757592  -0.0963190  -0.0670867), wk =   0.0039062
        k(  249) = (   0.3763578   0.0521072   0.0186492), wk =   0.0039062
        k(  250) = (   0.3724540   0.0511788   0.1004349), wk =   0.0039062
        k(  251) = (   0.3685502   0.0502505   0.1822206), wk =   0.0039062
        k(  252) = (   0.3646464   0.0493221   0.2640063), wk =   0.0039062
        k(  253) = (   0.3919728   0.0558206  -0.3084935), wk =   0.0039062
        k(  254) = (   0.3880691   0.0548922  -0.2267078), wk =   0.0039062
        k(  255) = (   0.3841653   0.0539639  -0.1449221), wk =   0.0039062
        k(  256) = (   0.3802615   0.0530355  -0.0631364), wk =   0.0039062
        k(  257) = (  -0.5078135  -0.2686157  -0.0301326), wk =   0.0039062
        k(  258) = (  -0.5117172  -0.2695440   0.0516531), wk =   0.0039062
        k(  259) = (  -0.5156210  -0.2704724   0.1334388), wk =   0.0039062
        k(  260) = (  -0.5195248  -0.2714007   0.2152245), wk =   0.0039062
        k(  261) = (  -0.4921984  -0.2649023  -0.3572754), wk =   0.0039062
        k(  262) = (  -0.4961022  -0.2658306  -0.2754897), wk =   0.0039062
        k(  263) = (  -0.5000059  -0.2667590  -0.1937040), wk =   0.0039062
        k(  264) = (  -0.5039097  -0.2676873  -0.1119183), wk =   0.0039062
        k(  265) = (  -0.5033111  -0.1192611  -0.0261824), wk =   0.0039062
        k(  266) = (  -0.5072149  -0.1201895   0.0556033), wk =   0.0039062
        k(  267) = (  -0.5111187  -0.1211178   0.1373890), wk =   0.0039062
        k(  268) = (  -0.5150224  -0.1220462   0.2191747), wk =   0.0039062
        k(  269) = (  -0.4876960  -0.1155477  -0.3533252), wk =   0.0039062
        k(  270) = (  -0.4915998  -0.1164760  -0.2715395), wk =   0.0039062
        k(  271) = (  -0.4955036  -0.1174044  -0.1897538), wk =   0.0039062
        k(  272) = (  -0.4994073  -0.1183327  -0.1079681), wk =   0.0039062
        k(  273) = (  -0.4988088   0.0300935  -0.0222322), wk =   0.0039062
        k(  274) = (  -0.5027125   0.0291651   0.0595535), wk =   0.0039062
        k(  275) = (  -0.5066163   0.0282368   0.1413392), wk =   0.0039062
        k(  276) = (  -0.5105201   0.0273084   0.2231249), wk =   0.0039062
        k(  277) = (  -0.4831937   0.0338069  -0.3493749), wk =   0.0039062
        k(  278) = (  -0.4870975   0.0328785  -0.2675893), wk =   0.0039062
        k(  279) = (  -0.4910012   0.0319502  -0.1858036), wk =   0.0039062
        k(  280) = (  -0.4949050   0.0310218  -0.1040179), wk =   0.0039062
        k(  281) = (  -0.4943064   0.1794480  -0.0182820), wk =   0.0039062
        k(  282) = (  -0.4982102   0.1785197   0.0635037), wk =   0.0039062
        k(  283) = (  -0.5021140   0.1775913   0.1452894), wk =   0.0039062
        k(  284) = (  -0.5060177   0.1766630   0.2270751), wk =   0.0039062
        k(  285) = (  -0.4786914   0.1831614  -0.3454247), wk =   0.0039062
        k(  286) = (  -0.4825951   0.1822331  -0.2636391), wk =   0.0039062
        k(  287) = (  -0.4864989   0.1813047  -0.1818534), wk =   0.0039062
        k(  288) = (  -0.4904027   0.1803764  -0.1000677), wk =   0.0039062
        k(  289) = (  -0.5258228  -0.8660339  -0.0459334), wk =   0.0039062
        k(  290) = (  -0.5297266  -0.8669623   0.0358523), wk =   0.0039062
        k(  291) = (  -0.5336304  -0.8678906   0.1176380), wk =   0.0039062
        k(  292) = (  -0.5375341  -0.8688190   0.1994236), wk =   0.0039062
        k(  293) = (  -0.5102078  -0.8623205  -0.3730762), wk =   0.0039062
        k(  294) = (  -0.5141115  -0.8632489  -0.2912905), wk =   0.0039062
        k(  295) = (  -0.5180153  -0.8641772  -0.2095048), wk =   0.0039062
        k(  296) = (  -0.5219191  -0.8651056  -0.1277191), wk =   0.0039062
        k(  297) = (  -0.5213205  -0.7166794  -0.0419832), wk =   0.0039062
        k(  298) = (  -0.5252243  -0.7176077   0.0398025), wk =   0.0039062
        k(  299) = (  -0.5291280  -0.7185361   0.1215882), wk =   0.0039062
        k(  300) = (  -0.5330318  -0.7194644   0.2033738), wk =   0.0039062
        k(  301) = (  -0.5057054  -0.7129660  -0.3691260), wk =   0.0039062
        k(  302) = (  -0.5096092  -0.7138943  -0.2873403), wk =   0.0039062
        k(  303) = (  -0.5135129  -0.7148227  -0.2055546), wk =   0.0039062
        k(  304) = (  -0.5174167  -0.7157510  -0.1237689), wk =   0.0039062
        k(  305) = (  -0.5168181  -0.5673248  -0.0380330), wk =   0.0039062
        k(  306) = (  -0.5207219  -0.5682532   0.0437527), wk =   0.0039062
        k(  307) = (  -0.5246257  -0.5691815   0.1255384), wk =   0.0039062
        k(  308) = (  -0.5285294  -0.5701099   0.2073241), wk =   0.0039062
        k(  309) = (  -0.5012031  -0.5636114  -0.3651758), wk =   0.0039062
        k(  310) = (  -0.5051068  -0.5645397  -0.2833901), wk =   0.0039062
        k(  311) = (  -0.5090106  -0.5654681  -0.2016044), wk =   0.0039062
        k(  312) = (  -0.5129144  -0.5663965  -0.1198187), wk =   0.0039062
        k(  313) = (  -0.5123158  -0.4179702  -0.0340828), wk =   0.0039062
        k(  314) = (  -0.5162196  -0.4188986   0.0477029), wk =   0.0039062
        k(  315) = (  -0.5201233  -0.4198269   0.1294886), wk =   0.0039062
        k(  316) = (  -0.5240271  -0.4207553   0.2112743), wk =   0.0039062
        k(  317) = (  -0.4967007  -0.4142568  -0.3612256), wk =   0.0039062
        k(  318) = (  -0.5006045  -0.4151852  -0.2794399), wk =   0.0039062
        k(  319) = (  -0.5045083  -0.4161135  -0.1976542), wk =   0.0039062
        k(  320) = (  -0.5084120  -0.4170419  -0.1158685), wk =   0.0039062
        k(  321) = (  -0.3808601  -0.2014618  -0.0225995), wk =   0.0039062
        k(  322) = (  -0.3847639  -0.2023901   0.0591862), wk =   0.0039062
        k(  323) = (  -0.3886676  -0.2033185   0.1409719), wk =   0.0039062
        k(  324) = (  -0.3925714  -0.2042468   0.2227576), wk =   0.0039062
        k(  325) = (  -0.3652450  -0.1977483  -0.3497422), wk =   0.0039062
        k(  326) = (  -0.3691488  -0.1986767  -0.2679565), wk =   0.0039062
        k(  327) = (  -0.3730526  -0.1996050  -0.1861708), wk =   0.0039062
        k(  328) = (  -0.3769563  -0.2005334  -0.1043851), wk =   0.0039062
        k(  329) = (  -0.3763578  -0.0521072  -0.0186492), wk =   0.0039062
        k(  330) = (  -0.3802615  -0.0530355   0.0631364), wk =   0.0039062
        k(  331) = (  -0.3841653  -0.0539639   0.1449221), wk =   0.0039062
        k(  332) = (  -0.3880691  -0.0548922   0.2267078), wk =   0.0039062
        k(  333) = (  -0.3607427  -0.0483938  -0.3457920), wk =   0.0039062
        k(  334) = (  -0.3646464  -0.0493221  -0.2640063), wk =   0.0039062
        k(  335) = (  -0.3685502  -0.0502505  -0.1822206), wk =   0.0039062
        k(  336) = (  -0.3724540  -0.0511788  -0.1004349), wk =   0.0039062
        k(  337) = (  -0.3718554   0.0972474  -0.0146990), wk =   0.0039062
        k(  338) = (  -0.3757592   0.0963190   0.0670867), wk =   0.0039062
        k(  339) = (  -0.3796629   0.0953907   0.1488723), wk =   0.0039062
        k(  340) = (  -0.3835667   0.0944623   0.2306580), wk =   0.0039062
        k(  341) = (  -0.3562403   0.1009608  -0.3418418), wk =   0.0039062
        k(  342) = (  -0.3601441   0.1000324  -0.2600561), wk =   0.0039062
        k(  343) = (  -0.3640479   0.0991041  -0.1782704), wk =   0.0039062
        k(  344) = (  -0.3679516   0.0981757  -0.0964847), wk =   0.0039062
        k(  345) = (  -0.3673531   0.2466020  -0.0107488), wk =   0.0039062
        k(  346) = (  -0.3712568   0.2456736   0.0710369), wk =   0.0039062
        k(  347) = (  -0.3751606   0.2447452   0.1528225), wk =   0.0039062
        k(  348) = (  -0.3790644   0.2438169   0.2346082), wk =   0.0039062
        k(  349) = (  -0.3517380   0.2503154  -0.3378916), wk =   0.0039062
        k(  350) = (  -0.3556418   0.2493870  -0.2561059), wk =   0.0039062
        k(  351) = (  -0.3595455   0.2484587  -0.1743202), wk =   0.0039062
        k(  352) = (  -0.3634493   0.2475303  -0.0925345), wk =   0.0039062
        k(  353) = (  -0.3988695  -0.7988800  -0.0384003), wk =   0.0039062
        k(  354) = (  -0.4027732  -0.7998084   0.0433854), wk =   0.0039062
        k(  355) = (  -0.4066770  -0.8007367   0.1251711), wk =   0.0039062
        k(  356) = (  -0.4105808  -0.8016651   0.2069568), wk =   0.0039062
        k(  357) = (  -0.3832544  -0.7951666  -0.3655430), wk =   0.0039062
        k(  358) = (  -0.3871582  -0.7960950  -0.2837573), wk =   0.0039062
        k(  359) = (  -0.3910619  -0.7970233  -0.2019717), wk =   0.0039062
        k(  360) = (  -0.3949657  -0.7979517  -0.1201860), wk =   0.0039062
        k(  361) = (  -0.3943671  -0.6495255  -0.0344501), wk =   0.0039062
        k(  362) = (  -0.3982709  -0.6504538   0.0473356), wk =   0.0039062
        k(  363) = (  -0.4021747  -0.6513822   0.1291213), wk =   0.0039062
        k(  364) = (  -0.4060784  -0.6523105   0.2109070), wk =   0.0039062
        k(  365) = (  -0.3787520  -0.6458120  -0.3615928), wk =   0.0039062
        k(  366) = (  -0.3826558  -0.6467404  -0.2798071), wk =   0.0039062
        k(  367) = (  -0.3865596  -0.6476688  -0.1980214), wk =   0.0039062
        k(  368) = (  -0.3904634  -0.6485971  -0.1162358), wk =   0.0039062
        k(  369) = (  -0.3898648  -0.5001709  -0.0304999), wk =   0.0039062
        k(  370) = (  -0.3937685  -0.5010992   0.0512858), wk =   0.0039062
        k(  371) = (  -0.3976723  -0.5020276   0.1330715), wk =   0.0039062
        k(  372) = (  -0.4015761  -0.5029559   0.2148572), wk =   0.0039062
        k(  373) = (  -0.3742497  -0.4964575  -0.3576426), wk =   0.0039062
        k(  374) = (  -0.3781535  -0.4973858  -0.2758569), wk =   0.0039062
        k(  375) = (  -0.3820572  -0.4983142  -0.1940712), wk =   0.0039062
        k(  376) = (  -0.3859610  -0.4992425  -0.1122856), wk =   0.0039062
        k(  377) = (  -0.3853624  -0.3508163  -0.0265497), wk =   0.0039062
        k(  378) = (  -0.3892662  -0.3517447   0.0552360), wk =   0.0039062
        k(  379) = (  -0.3931700  -0.3526730   0.1370217), wk =   0.0039062
        k(  380) = (  -0.3970737  -0.3536014   0.2188074), wk =   0.0039062
        k(  381) = (  -0.3697474  -0.3471029  -0.3536924), wk =   0.0039062
        k(  382) = (  -0.3736511  -0.3480313  -0.2719067), wk =   0.0039062
        k(  383) = (  -0.3775549  -0.3489596  -0.1901210), wk =   0.0039062
        k(  384) = (  -0.3814587  -0.3498880  -0.1083353), wk =   0.0039062
        k(  385) = (  -0.2539067  -0.1343078  -0.0150663), wk =   0.0039062
        k(  386) = (  -0.2578105  -0.1352362   0.0667194), wk =   0.0039062
        k(  387) = (  -0.2617143  -0.1361645   0.1485051), wk =   0.0039062
        k(  388) = (  -0.2656180  -0.1370929   0.2302908), wk =   0.0039062
        k(  389) = (  -0.2382917  -0.1305944  -0.3422091), wk =   0.0039062
        k(  390) = (  -0.2421954  -0.1315228  -0.2604234), wk =   0.0039062
        k(  391) = (  -0.2460992  -0.1324511  -0.1786377), wk =   0.0039062
        k(  392) = (  -0.2500030  -0.1333795  -0.0968520), wk =   0.0039062
        k(  393) = (  -0.2494044   0.0150467  -0.0111161), wk =   0.0039062
        k(  394) = (  -0.2533082   0.0141184   0.0706696), wk =   0.0039062
        k(  395) = (  -0.2572119   0.0131900   0.1524553), wk =   0.0039062
        k(  396) = (  -0.2611157   0.0122617   0.2342410), wk =   0.0039062
        k(  397) = (  -0.2337893   0.0187601  -0.3382589), wk =   0.0039062
        k(  398) = (  -0.2376931   0.0178318  -0.2564732), wk =   0.0039062
        k(  399) = (  -0.2415969   0.0169034  -0.1746875), wk =   0.0039062
        k(  400) = (  -0.2455006   0.0159751  -0.0929018), wk =   0.0039062
        k(  401) = (  -0.2449020   0.1644013  -0.0071659), wk =   0.0039062
        k(  402) = (  -0.2488058   0.1634729   0.0746198), wk =   0.0039062
        k(  403) = (  -0.2527096   0.1625446   0.1564055), wk =   0.0039062
        k(  404) = (  -0.2566134   0.1616162   0.2381912), wk =   0.0039062
        k(  405) = (  -0.2292870   0.1681147  -0.3343086), wk =   0.0039062
        k(  406) = (  -0.2331907   0.1671864  -0.2525230), wk =   0.0039062
        k(  407) = (  -0.2370945   0.1662580  -0.1707373), wk =   0.0039062
        k(  408) = (  -0.2409983   0.1653297  -0.0889516), wk =   0.0039062
        k(  409) = (  -0.2403997   0.3137559  -0.0032157), wk =   0.0039062
        k(  410) = (  -0.2443035   0.3128275   0.0785700), wk =   0.0039062
        k(  411) = (  -0.2482072   0.3118992   0.1603557), wk =   0.0039062
        k(  412) = (  -0.2521110   0.3109708   0.2421414), wk =   0.0039062
        k(  413) = (  -0.2247846   0.3174693  -0.3303584), wk =   0.0039062
        k(  414) = (  -0.2286884   0.3165409  -0.2485728), wk =   0.0039062
        k(  415) = (  -0.2325922   0.3156126  -0.1667871), wk =   0.0039062
        k(  416) = (  -0.2364959   0.3146842  -0.0850014), wk =   0.0039062
        k(  417) = (  -0.2719161  -0.7317261  -0.0308671), wk =   0.0039062
        k(  418) = (  -0.2758199  -0.7326545   0.0509186), wk =   0.0039062
        k(  419) = (  -0.2797236  -0.7335828   0.1327043), wk =   0.0039062
        k(  420) = (  -0.2836274  -0.7345112   0.2144899), wk =   0.0039062
        k(  421) = (  -0.2563010  -0.7280127  -0.3580099), wk =   0.0039062
        k(  422) = (  -0.2602048  -0.7289410  -0.2762242), wk =   0.0039062
        k(  423) = (  -0.2641086  -0.7298694  -0.1944385), wk =   0.0039062
        k(  424) = (  -0.2680123  -0.7307978  -0.1126528), wk =   0.0039062
        k(  425) = (  -0.2674138  -0.5823715  -0.0269169), wk =   0.0039062
        k(  426) = (  -0.2713175  -0.5832999   0.0548688), wk =   0.0039062
        k(  427) = (  -0.2752213  -0.5842282   0.1366545), wk =   0.0039062
        k(  428) = (  -0.2791251  -0.5851566   0.2184401), wk =   0.0039062
        k(  429) = (  -0.2517987  -0.5786581  -0.3540597), wk =   0.0039062
        k(  430) = (  -0.2557024  -0.5795865  -0.2722740), wk =   0.0039062
        k(  431) = (  -0.2596062  -0.5805148  -0.1904883), wk =   0.0039062
        k(  432) = (  -0.2635100  -0.5814432  -0.1087026), wk =   0.0039062
        k(  433) = (  -0.2629114  -0.4330170  -0.0229667), wk =   0.0039062
        k(  434) = (  -0.2668152  -0.4339453   0.0588190), wk =   0.0039062
        k(  435) = (  -0.2707189  -0.4348737   0.1406047), wk =   0.0039062
        k(  436) = (  -0.2746227  -0.4358020   0.2223904), wk =   0.0039062
        k(  437) = (  -0.2472963  -0.4293036  -0.3501095), wk =   0.0039062
        k(  438) = (  -0.2512001  -0.4302319  -0.2683238), wk =   0.0039062
        k(  439) = (  -0.2551039  -0.4311603  -0.1865381), wk =   0.0039062
        k(  440) = (  -0.2590076  -0.4320886  -0.1047524), wk =   0.0039062
        k(  441) = (  -0.2584091  -0.2836624  -0.0190165), wk =   0.0039062
        k(  442) = (  -0.2623128  -0.2845908   0.0627692), wk =   0.0039062
        k(  443) = (  -0.2662166  -0.2855191   0.1445549), wk =   0.0039062
        k(  444) = (  -0.2701204  -0.2864475   0.2263406), wk =   0.0039062
        k(  445) = (  -0.2427940  -0.2799490  -0.3461593), wk =   0.0039062
        k(  446) = (  -0.2466978  -0.2808773  -0.2643736), wk =   0.0039062
        k(  447) = (  -0.2506015  -0.2818057  -0.1825879), wk =   0.0039062
        k(  448) = (  -0.2545053  -0.2827341  -0.1008022), wk =   0.0039062
        k(  449) = (  -0.1269534  -0.0671539  -0.0075332), wk =   0.0039062
        k(  450) = (  -0.1308571  -0.0680823   0.0742525), wk =   0.0039062
        k(  451) = (  -0.1347609  -0.0690106   0.1560382), wk =   0.0039062
        k(  452) = (  -0.1386647  -0.0699390   0.2378239), wk =   0.0039062
        k(  453) = (  -0.1113383  -0.0634405  -0.3346759), wk =   0.0039062
        k(  454) = (  -0.1152421  -0.0643689  -0.2528902), wk =   0.0039062
        k(  455) = (  -0.1191458  -0.0652972  -0.1711045), wk =   0.0039062
        k(  456) = (  -0.1230496  -0.0662256  -0.0893188), wk =   0.0039062
        k(  457) = (  -0.1224510   0.0822007  -0.0035829), wk =   0.0039062
        k(  458) = (  -0.1263548   0.0812723   0.0782027), wk =   0.0039062
        k(  459) = (  -0.1302586   0.0803439   0.1599884), wk =   0.0039062
        k(  460) = (  -0.1341623   0.0794156   0.2417741), wk =   0.0039062
        k(  461) = (  -0.1068360   0.0859141  -0.3307257), wk =   0.0039062
        k(  462) = (  -0.1107397   0.0849857  -0.2489400), wk =   0.0039062
        k(  463) = (  -0.1146435   0.0840574  -0.1671543), wk =   0.0039062
        k(  464) = (  -0.1185473   0.0831290  -0.0853686), wk =   0.0039062
        k(  465) = (  -0.1179487   0.2315552   0.0003673), wk =   0.0039062
        k(  466) = (  -0.1218525   0.2306269   0.0821530), wk =   0.0039062
        k(  467) = (  -0.1257562   0.2296985   0.1639386), wk =   0.0039062
        k(  468) = (  -0.1296600   0.2287702   0.2457243), wk =   0.0039062
        k(  469) = (  -0.1023336   0.2352686  -0.3267755), wk =   0.0039062
        k(  470) = (  -0.1062374   0.2343403  -0.2449898), wk =   0.0039062
        k(  471) = (  -0.1101411   0.2334119  -0.1632041), wk =   0.0039062
        k(  472) = (  -0.1140449   0.2324836  -0.0814184), wk =   0.0039062
        k(  473) = (  -0.1134463   0.3809098   0.0043175), wk =   0.0039062
        k(  474) = (  -0.1173501   0.3799814   0.0861032), wk =   0.0039062
        k(  475) = (  -0.1212539   0.3790531   0.1678888), wk =   0.0039062
        k(  476) = (  -0.1251576   0.3781247   0.2496745), wk =   0.0039062
        k(  477) = (  -0.0978313   0.3846232  -0.3228253), wk =   0.0039062
        k(  478) = (  -0.1017350   0.3836948  -0.2410396), wk =   0.0039062
        k(  479) = (  -0.1056388   0.3827665  -0.1592539), wk =   0.0039062
        k(  480) = (  -0.1095426   0.3818381  -0.0774682), wk =   0.0039062
        k(  481) = (  -0.1449627  -0.6645722  -0.0233340), wk =   0.0039062
        k(  482) = (  -0.1488665  -0.6655005   0.0584517), wk =   0.0039062
        k(  483) = (  -0.1527703  -0.6664289   0.1402374), wk =   0.0039062
        k(  484) = (  -0.1566740  -0.6673572   0.2220231), wk =   0.0039062
        k(  485) = (  -0.1293477  -0.6608588  -0.3504767), wk =   0.0039062
        k(  486) = (  -0.1332514  -0.6617871  -0.2686910), wk =   0.0039062
        k(  487) = (  -0.1371552  -0.6627155  -0.1869054), wk =   0.0039062
        k(  488) = (  -0.1410590  -0.6636438  -0.1051197), wk =   0.0039062
        k(  489) = (  -0.1404604  -0.5152176  -0.0193838), wk =   0.0039062
        k(  490) = (  -0.1443642  -0.5161460   0.0624019), wk =   0.0039062
        k(  491) = (  -0.1482679  -0.5170743   0.1441876), wk =   0.0039062
        k(  492) = (  -0.1521717  -0.5180027   0.2259733), wk =   0.0039062
        k(  493) = (  -0.1248453  -0.5115042  -0.3465265), wk =   0.0039062
        k(  494) = (  -0.1287491  -0.5124326  -0.2647408), wk =   0.0039062
        k(  495) = (  -0.1326529  -0.5133609  -0.1829551), wk =   0.0039062
        k(  496) = (  -0.1365566  -0.5142893  -0.1011695), wk =   0.0039062
        k(  497) = (  -0.1359580  -0.3658631  -0.0154336), wk =   0.0039062
        k(  498) = (  -0.1398618  -0.3667914   0.0663521), wk =   0.0039062
        k(  499) = (  -0.1437656  -0.3677198   0.1481378), wk =   0.0039062
        k(  500) = (  -0.1476694  -0.3686481   0.2299235), wk =   0.0039062
        k(  501) = (  -0.1203430  -0.3621496  -0.3425763), wk =   0.0039062
        k(  502) = (  -0.1242467  -0.3630780  -0.2607906), wk =   0.0039062
        k(  503) = (  -0.1281505  -0.3640063  -0.1790049), wk =   0.0039062
        k(  504) = (  -0.1320543  -0.3649347  -0.0972193), wk =   0.0039062
        k(  505) = (  -0.1314557  -0.2165085  -0.0114834), wk =   0.0039062
        k(  506) = (  -0.1353595  -0.2174368   0.0703023), wk =   0.0039062
        k(  507) = (  -0.1392632  -0.2183652   0.1520880), wk =   0.0039062
        k(  508) = (  -0.1431670  -0.2192935   0.2338737), wk =   0.0039062
        k(  509) = (  -0.1158406  -0.2127951  -0.3386261), wk =   0.0039062
        k(  510) = (  -0.1197444  -0.2137234  -0.2568404), wk =   0.0039062
        k(  511) = (  -0.1236482  -0.2146518  -0.1750547), wk =   0.0039062
        k(  512) = (  -0.1275519  -0.2155801  -0.0932690), wk =   0.0039062

                       cryst. coord.
        k(    1) = (   0.0000000   0.0000000   0.0000000), wk =   0.0039062
        k(    2) = (  -0.0000000   0.0000000   0.1250000), wk =   0.0039062
        k(    3) = (  -0.0000000   0.0000000   0.2500000), wk =   0.0039062
        k(    4) = (   0.0000000   0.0000000   0.3750000), wk =   0.0039062
        k(    5) = (   0.0000000   0.0000000  -0.5000000), wk =   0.0039062
        k(    6) = (   0.0000000  -0.0000000  -0.3750000), wk =   0.0039062
        k(    7) = (   0.0000000   0.0000000  -0.2500000), wk =   0.0039062
        k(    8) = (   0.0000000   0.0000000  -0.1250000), wk =   0.0039062
        k(    9) = (  -0.0000000   0.1250000  -0.0000000), wk =   0.0039062
        k(   10) = (  -0.0000000   0.1250000   0.1250000), wk =   0.0039062
        k(   11) = (  -0.0000000   0.1250000   0.2500000), wk =   0.0039062
        k(   12) = (  -0.0000000   0.1250000   0.3750000), wk =   0.0039062
        k(   13) = (   0.0000000   0.1250000  -0.5000000), wk =   0.0039062
        k(   14) = (  -0.0000000   0.1250000  -0.3750000), wk =   0.0039062
        k(   15) = (  -0.0000000   0.1250000  -0.2500000), wk =   0.0039062
        k(   16) = (  -0.0000000   0.1250000  -0.1250000), wk =   0.0039062
        k(   17) = (  -0.0000000   0.2500000  -0.0000000), wk =   0.0039062
        k(   18) = (  -0.0000000   0.2500000   0.1250000), wk =   0.0039062
        k(   19) = (  -0.0000000   0.2500000   0.2500000), wk =   0.0039062
        k(   20) = (  -0.0000000   0.2500000   0.3750000), wk =   0.0039062
        k(   21) = (  -0.0000000   0.2500000  -0.5000000), wk =   0.0039062
        k(   22) = (   0.0000000   0.2500000  -0.3750000), wk =   0.0039062
        k(   23) = (  -0.0000000   0.2500000  -0.2500000), wk =   0.0039062
        k(   24) = (  -0.0000000   0.2500000  -0.1250000), wk =   0.0039062
        k(   25) = (  -0.0000000   0.3750000   0.0000000), wk =   0.0039062
        k(   26) = (  -0.0000000   0.3750000   0.1250000), wk =   0.0039062
        k(   27) = (  -0.0000000   0.3750000   0.2500000), wk =   0.0039062
        k(   28) = (  -0.0000000   0.3750000   0.3750000), wk =   0.0039062
        k(   29) = (  -0.0000000   0.3750000  -0.5000000), wk =   0.0039062
        k(   30) = (  -0.0000000   0.3750000  -0.3750000), wk =   0.0039062
        k(   31) = (  -0.0000000   0.3750000  -0.2500000), wk =   0.0039062
        k(   32) = (  -0.0000000   0.3750000  -0.1250000), wk =   0.0039062
        k(   33) = (   0.0000000  -0.5000000   0.0000000), wk =   0.0039062
        k(   34) = (   0.0000000  -0.5000000   0.1250000), wk =   0.0039062
        k(   35) = (   0.0000000  -0.5000000   0.2500000), wk =   0.0039062
        k(   36) = (   0.0000000  -0.5000000   0.3750000), wk =   0.0039062
        k(   37) = (   0.0000000  -0.5000000  -0.5000000), wk =   0.0039062
        k(   38) = (   0.0000000  -0.5000000  -0.3750000), wk =   0.0039062
        k(   39) = (   0.0000000  -0.5000000  -0.2500000), wk =   0.0039062
        k(   40) = (   0.0000000  -0.5000000  -0.1250000), wk =   0.0039062
        k(   41) = (   0.0000000  -0.3750000   0.0000000), wk =   0.0039062
        k(   42) = (   0.0000000  -0.3750000   0.1250000), wk =   0.0039062
        k(   43) = (   0.0000000  -0.3750000   0.2500000), wk =   0.0039062
        k(   44) = (   0.0000000  -0.3750000   0.3750000), wk =   0.0039062
        k(   45) = (   0.0000000  -0.3750000  -0.5000000), wk =   0.0039062
        k(   46) = (   0.0000000  -0.3750000  -0.3750000), wk =   0.0039062
        k(   47) = (   0.0000000  -0.3750000  -0.2500000), wk =   0.0039062
        k(   48) = (   0.0000000  -0.3750000  -0.1250000), wk =   0.0039062
        k(   49) = (   0.0000000  -0.2500000   0.0000000), wk =   0.0039062
        k(   50) = (   0.0000000  -0.2500000   0.1250000), wk =   0.0039062
        k(   51) = (   0.0000000  -0.2500000   0.2500000), wk =   0.0039062
        k(   52) = (   0.0000000  -0.2500000   0.3750000), wk =   0.0039062
        k(   53) = (   0.0000000  -0.2500000  -0.5000000), wk =   0.0039062
        k(   54) = (   0.0000000  -0.2500000  -0.3750000), wk =   0.0039062
        k(   55) = (   0.0000000  -0.2500000  -0.2500000), wk =   0.0039062
        k(   56) = (   0.0000000  -0.2500000  -0.1250000), wk =   0.0039062
        k(   57) = (   0.0000000  -0.1250000   0.0000000), wk =   0.0039062
        k(   58) = (   0.0000000  -0.1250000   0.1250000), wk =   0.0039062
        k(   59) = (   0.0000000  -0.1250000   0.2500000), wk =   0.0039062
        k(   60) = (   0.0000000  -0.1250000   0.3750000), wk =   0.0039062
        k(   61) = (   0.0000000  -0.1250000  -0.5000000), wk =   0.0039062
        k(   62) = (   0.0000000  -0.1250000  -0.3750000), wk =   0.0039062
        k(   63) = (   0.0000000  -0.1250000  -0.2500000), wk =   0.0039062
        k(   64) = (   0.0000000  -0.1250000  -0.1250000), wk =   0.0039062
        k(   65) = (   0.1250000  -0.0000000   0.0000000), wk =   0.0039062
        k(   66) = (   0.1250000  -0.0000000   0.1250000), wk =   0.0039062
        k(   67) = (   0.1250000  -0.0000000   0.2500000), wk =   0.0039062
        k(   68) = (   0.1250000  -0.0000000   0.3750000), wk =   0.0039062
        k(   69) = (   0.1250000  -0.0000000  -0.5000000), wk =   0.0039062
        k(   70) = (   0.1250000  -0.0000000  -0.3750000), wk =   0.0039062
        k(   71) = (   0.1250000  -0.0000000  -0.2500000), wk =   0.0039062
        k(   72) = (   0.1250000  -0.0000000  -0.1250000), wk =   0.0039062
        k(   73) = (   0.1250000   0.1250000   0.0000000), wk =   0.0039062
        k(   74) = (   0.1250000   0.1250000   0.1250000), wk =   0.0039062
        k(   75) = (   0.1250000   0.1250000   0.2500000), wk =   0.0039062
        k(   76) = (   0.1250000   0.1250000   0.3750000), wk =   0.0039062
        k(   77) = (   0.1250000   0.1250000  -0.5000000), wk =   0.0039062
        k(   78) = (   0.1250000   0.1250000  -0.3750000), wk =   0.0039062
        k(   79) = (   0.1250000   0.1250000  -0.2500000), wk =   0.0039062
        k(   80) = (   0.1250000   0.1250000  -0.1250000), wk =   0.0039062
        k(   81) = (   0.1250000   0.2500000   0.0000000), wk =   0.0039062
        k(   82) = (   0.1250000   0.2500000   0.1250000), wk =   0.0039062
        k(   83) = (   0.1250000   0.2500000   0.2500000), wk =   0.0039062
        k(   84) = (   0.1250000   0.2500000   0.3750000), wk =   0.0039062
        k(   85) = (   0.1250000   0.2500000  -0.5000000), wk =   0.0039062
        k(   86) = (   0.1250000   0.2500000  -0.3750000), wk =   0.0039062
        k(   87) = (   0.1250000   0.2500000  -0.2500000), wk =   0.0039062
        k(   88) = (   0.1250000   0.2500000  -0.1250000), wk =   0.0039062
        k(   89) = (   0.1250000   0.3750000   0.0000000), wk =   0.0039062
        k(   90) = (   0.1250000   0.3750000   0.1250000), wk =   0.0039062
        k(   91) = (   0.1250000   0.3750000   0.2500000), wk =   0.0039062
        k(   92) = (   0.1250000   0.3750000   0.3750000), wk =   0.0039062
        k(   93) = (   0.1250000   0.3750000  -0.5000000), wk =   0.0039062
        k(   94) = (   0.1250000   0.3750000  -0.3750000), wk =   0.0039062
        k(   95) = (   0.1250000   0.3750000  -0.2500000), wk =   0.0039062
        k(   96) = (   0.1250000   0.3750000  -0.1250000), wk =   0.0039062
        k(   97) = (   0.1250000  -0.5000000   0.0000000), wk =   0.0039062
        k(   98) = (   0.1250000  -0.5000000   0.1250000), wk =   0.0039062
        k(   99) = (   0.1250000  -0.5000000   0.2500000), wk =   0.0039062
        k(  100) = (   0.1250000  -0.5000000   0.3750000), wk =   0.0039062
        k(  101) = (   0.1250000  -0.5000000  -0.5000000), wk =   0.0039062
        k(  102) = (   0.1250000  -0.5000000  -0.3750000), wk =   0.0039062
        k(  103) = (   0.1250000  -0.5000000  -0.2500000), wk =   0.0039062
        k(  104) = (   0.1250000  -0.5000000  -0.1250000), wk =   0.0039062
        k(  105) = (   0.1250000  -0.3750000   0.0000000), wk =   0.0039062
        k(  106) = (   0.1250000  -0.3750000   0.1250000), wk =   0.0039062
        k(  107) = (   0.1250000  -0.3750000   0.2500000), wk =   0.0039062
        k(  108) = (   0.1250000  -0.3750000   0.3750000), wk =   0.0039062
        k(  109) = (   0.1250000  -0.3750000  -0.5000000), wk =   0.0039062
        k(  110) = (   0.1250000  -0.3750000  -0.3750000), wk =   0.0039062
        k(  111) = (   0.1250000  -0.3750000  -0.2500000), wk =   0.0039062
        k(  112) = (   0.1250000  -0.3750000  -0.1250000), wk =   0.0039062
        k(  113) = (   0.1250000  -0.2500000   0.0000000), wk =   0.0039062
        k(  114) = (   0.1250000  -0.2500000   0.1250000), wk =   0.0039062
        k(  115) = (   0.1250000  -0.2500000   0.2500000), wk =   0.0039062
        k(  116) = (   0.1250000  -0.2500000   0.3750000), wk =   0.0039062
        k(  117) = (   0.1250000  -0.2500000  -0.5000000), wk =   0.0039062
        k(  118) = (   0.1250000  -0.2500000  -0.3750000), wk =   0.0039062
        k(  119) = (   0.1250000  -0.2500000  -0.2500000), wk =   0.0039062
        k(  120) = (   0.1250000  -0.2500000  -0.1250000), wk =   0.0039062
        k(  121) = (   0.1250000  -0.1250000   0.0000000), wk =   0.0039062
        k(  122) = (   0.1250000  -0.1250000   0.1250000), wk =   0.0039062
        k(  123) = (   0.1250000  -0.1250000   0.2500000), wk =   0.0039062
        k(  124) = (   0.1250000  -0.1250000   0.3750000), wk =   0.0039062
        k(  125) = (   0.1250000  -0.1250000  -0.5000000), wk =   0.0039062
        k(  126) = (   0.1250000  -0.1250000  -0.3750000), wk =   0.0039062
        k(  127) = (   0.1250000  -0.1250000  -0.2500000), wk =   0.0039062
        k(  128) = (   0.1250000  -0.1250000  -0.1250000), wk =   0.0039062
        k(  129) = (   0.2500000  -0.0000000   0.0000000), wk =   0.0039062
        k(  130) = (   0.2500000  -0.0000000   0.1250000), wk =   0.0039062
        k(  131) = (   0.2500000  -0.0000000   0.2500000), wk =   0.0039062
        k(  132) = (   0.2500000  -0.0000000   0.3750000), wk =   0.0039062
        k(  133) = (   0.2500000  -0.0000000  -0.5000000), wk =   0.0039062
        k(  134) = (   0.2500000  -0.0000000  -0.3750000), wk =   0.0039062
        k(  135) = (   0.2500000  -0.0000000  -0.2500000), wk =   0.0039062
        k(  136) = (   0.2500000  -0.0000000  -0.1250000), wk =   0.0039062
        k(  137) = (   0.2500000   0.1250000   0.0000000), wk =   0.0039062
        k(  138) = (   0.2500000   0.1250000   0.1250000), wk =   0.0039062
        k(  139) = (   0.2500000   0.1250000   0.2500000), wk =   0.0039062
        k(  140) = (   0.2500000   0.1250000   0.3750000), wk =   0.0039062
        k(  141) = (   0.2500000   0.1250000  -0.5000000), wk =   0.0039062
        k(  142) = (   0.2500000   0.1250000  -0.3750000), wk =   0.0039062
        k(  143) = (   0.2500000   0.1250000  -0.2500000), wk =   0.0039062
        k(  144) = (   0.2500000   0.1250000  -0.1250000), wk =   0.0039062
        k(  145) = (   0.2500000   0.2500000   0.0000000), wk =   0.0039062
        k(  146) = (   0.2500000   0.2500000   0.1250000), wk =   0.0039062
        k(  147) = (   0.2500000   0.2500000   0.2500000), wk =   0.0039062
        k(  148) = (   0.2500000   0.2500000   0.3750000), wk =   0.0039062
        k(  149) = (   0.2500000   0.2500000  -0.5000000), wk =   0.0039062
        k(  150) = (   0.2500000   0.2500000  -0.3750000), wk =   0.0039062
        k(  151) = (   0.2500000   0.2500000  -0.2500000), wk =   0.0039062
        k(  152) = (   0.2500000   0.2500000  -0.1250000), wk =   0.0039062
        k(  153) = (   0.2500000   0.3750000   0.0000000), wk =   0.0039062
        k(  154) = (   0.2500000   0.3750000   0.1250000), wk =   0.0039062
        k(  155) = (   0.2500000   0.3750000   0.2500000), wk =   0.0039062
        k(  156) = (   0.2500000   0.3750000   0.3750000), wk =   0.0039062
        k(  157) = (   0.2500000   0.3750000  -0.5000000), wk =   0.0039062
        k(  158) = (   0.2500000   0.3750000  -0.3750000), wk =   0.0039062
        k(  159) = (   0.2500000   0.3750000  -0.2500000), wk =   0.0039062
        k(  160) = (   0.2500000   0.3750000  -0.1250000), wk =   0.0039062
        k(  161) = (   0.2500000  -0.5000000   0.0000000), wk =   0.0039062
        k(  162) = (   0.2500000  -0.5000000   0.1250000), wk =   0.0039062
        k(  163) = (   0.2500000  -0.5000000   0.2500000), wk =   0.0039062
        k(  164) = (   0.2500000  -0.5000000   0.3750000), wk =   0.0039062
        k(  165) = (   0.2500000  -0.5000000  -0.5000000), wk =   0.0039062
        k(  166) = (   0.2500000  -0.5000000  -0.3750000), wk =   0.0039062
        k(  167) = (   0.2500000  -0.5000000  -0.2500000), wk =   0.0039062
        k(  168) = (   0.2500000  -0.5000000  -0.1250000), wk =   0.0039062
        k(  169) = (   0.2500000  -0.3750000   0.0000000), wk =   0.0039062
        k(  170) = (   0.2500000  -0.3750000   0.1250000), wk =   0.0039062
        k(  171) = (   0.2500000  -0.3750000   0.2500000), wk =   0.0039062
        k(  172) = (   0.2500000  -0.3750000   0.3750000), wk =   0.0039062
        k(  173) = (   0.2500000  -0.3750000  -0.5000000), wk =   0.0039062
        k(  174) = (   0.2500000  -0.3750000  -0.3750000), wk =   0.0039062
        k(  175) = (   0.2500000  -0.3750000  -0.2500000), wk =   0.0039062
        k(  176) = (   0.2500000  -0.3750000  -0.1250000), wk =   0.0039062
        k(  177) = (   0.2500000  -0.2500000   0.0000000), wk =   0.0039062
        k(  178) = (   0.2500000  -0.2500000   0.1250000), wk =   0.0039062
        k(  179) = (   0.2500000  -0.2500000   0.2500000), wk =   0.0039062
        k(  180) = (   0.2500000  -0.2500000   0.3750000), wk =   0.0039062
        k(  181) = (   0.2500000  -0.2500000  -0.5000000), wk =   0.0039062
        k(  182) = (   0.2500000  -0.2500000  -0.3750000), wk =   0.0039062
        k(  183) = (   0.2500000  -0.2500000  -0.2500000), wk =   0.0039062
        k(  184) = (   0.2500000  -0.2500000  -0.1250000), wk =   0.0039062
        k(  185) = (   0.2500000  -0.1250000   0.0000000), wk =   0.0039062
        k(  186) = (   0.2500000  -0.1250000   0.1250000), wk =   0.0039062
        k(  187) = (   0.2500000  -0.1250000   0.2500000), wk =   0.0039062
        k(  188) = (   0.2500000  -0.1250000   0.3750000), wk =   0.0039062
        k(  189) = (   0.2500000  -0.1250000  -0.5000000), wk =   0.0039062
        k(  190) = (   0.2500000  -0.1250000  -0.3750000), wk =   0.0039062
        k(  191) = (   0.2500000  -0.1250000  -0.2500000), wk =   0.0039062
        k(  192) = (   0.2500000  -0.1250000  -0.1250000), wk =   0.0039062
        k(  193) = (   0.3750000  -0.0000000   0.0000000), wk =   0.0039062
        k(  194) = (   0.3750000  -0.0000000   0.1250000), wk =   0.0039062
        k(  195) = (   0.3750000  -0.0000000   0.2500000), wk =   0.0039062
        k(  196) = (   0.3750000  -0.0000000   0.3750000), wk =   0.0039062
        k(  197) = (   0.3750000  -0.0000000  -0.5000000), wk =   0.0039062
        k(  198) = (   0.3750000  -0.0000000  -0.3750000), wk =   0.0039062
        k(  199) = (   0.3750000  -0.0000000  -0.2500000), wk =   0.0039062
        k(  200) = (   0.3750000  -0.0000000  -0.1250000), wk =   0.0039062
        k(  201) = (   0.3750000   0.1250000   0.0000000), wk =   0.0039062
        k(  202) = (   0.3750000   0.1250000   0.1250000), wk =   0.0039062
        k(  203) = (   0.3750000   0.1250000   0.2500000), wk =   0.0039062
        k(  204) = (   0.3750000   0.1250000   0.3750000), wk =   0.0039062
        k(  205) = (   0.3750000   0.1250000  -0.5000000), wk =   0.0039062
        k(  206) = (   0.3750000   0.1250000  -0.3750000), wk =   0.0039062
        k(  207) = (   0.3750000   0.1250000  -0.2500000), wk =   0.0039062
        k(  208) = (   0.3750000   0.1250000  -0.1250000), wk =   0.0039062
        k(  209) = (   0.3750000   0.2500000   0.0000000), wk =   0.0039062
        k(  210) = (   0.3750000   0.2500000   0.1250000), wk =   0.0039062
        k(  211) = (   0.3750000   0.2500000   0.2500000), wk =   0.0039062
        k(  212) = (   0.3750000   0.2500000   0.3750000), wk =   0.0039062
        k(  213) = (   0.3750000   0.2500000  -0.5000000), wk =   0.0039062
        k(  214) = (   0.3750000   0.2500000  -0.3750000), wk =   0.0039062
        k(  215) = (   0.3750000   0.2500000  -0.2500000), wk =   0.0039062
        k(  216) = (   0.3750000   0.2500000  -0.1250000), wk =   0.0039062
        k(  217) = (   0.3750000   0.3750000   0.0000000), wk =   0.0039062
        k(  218) = (   0.3750000   0.3750000   0.1250000), wk =   0.0039062
        k(  219) = (   0.3750000   0.3750000   0.2500000), wk =   0.0039062
        k(  220) = (   0.3750000   0.3750000   0.3750000), wk =   0.0039062
        k(  221) = (   0.3750000   0.3750000  -0.5000000), wk =   0.0039062
        k(  222) = (   0.3750000   0.3750000  -0.3750000), wk =   0.0039062
        k(  223) = (   0.3750000   0.3750000  -0.2500000), wk =   0.0039062
        k(  224) = (   0.3750000   0.3750000  -0.1250000), wk =   0.0039062
        k(  225) = (   0.3750000  -0.5000000   0.0000000), wk =   0.0039062
        k(  226) = (   0.3750000  -0.5000000   0.1250000), wk =   0.0039062
        k(  227) = (   0.3750000  -0.5000000   0.2500000), wk =   0.0039062
        k(  228) = (   0.3750000  -0.5000000   0.3750000), wk =   0.0039062
        k(  229) = (   0.3750000  -0.5000000  -0.5000000), wk =   0.0039062
        k(  230) = (   0.3750000  -0.5000000  -0.3750000), wk =   0.0039062
        k(  231) = (   0.3750000  -0.5000000  -0.2500000), wk =   0.0039062
        k(  232) = (   0.3750000  -0.5000000  -0.1250000), wk =   0.0039062
        k(  233) = (   0.3750000  -0.3750000   0.0000000), wk =   0.0039062
        k(  234) = (   0.3750000  -0.3750000   0.1250000), wk =   0.0039062
        k(  235) = (   0.3750000  -0.3750000   0.2500000), wk =   0.0039062
        k(  236) = (   0.3750000  -0.3750000   0.3750000), wk =   0.0039062
        k(  237) = (   0.3750000  -0.3750000  -0.5000000), wk =   0.0039062
        k(  238) = (   0.3750000  -0.3750000  -0.3750000), wk =   0.0039062
        k(  239) = (   0.3750000  -0.3750000  -0.2500000), wk =   0.0039062
        k(  240) = (   0.3750000  -0.3750000  -0.1250000), wk =   0.0039062
        k(  241) = (   0.3750000  -0.2500000   0.0000000), wk =   0.0039062
        k(  242) = (   0.3750000  -0.2500000   0.1250000), wk =   0.0039062
        k(  243) = (   0.3750000  -0.2500000   0.2500000), wk =   0.0039062
        k(  244) = (   0.3750000  -0.2500000   0.3750000), wk =   0.0039062
        k(  245) = (   0.3750000  -0.2500000  -0.5000000), wk =   0.0039062
        k(  246) = (   0.3750000  -0.2500000  -0.3750000), wk =   0.0039062
        k(  247) = (   0.3750000  -0.2500000  -0.2500000), wk =   0.0039062
        k(  248) = (   0.3750000  -0.2500000  -0.1250000), wk =   0.0039062
        k(  249) = (   0.3750000  -0.1250000   0.0000000), wk =   0.0039062
        k(  250) = (   0.3750000  -0.1250000   0.1250000), wk =   0.0039062
        k(  251) = (   0.3750000  -0.1250000   0.2500000), wk =   0.0039062
        k(  252) = (   0.3750000  -0.1250000   0.3750000), wk =   0.0039062
        k(  253) = (   0.3750000  -0.1250000  -0.5000000), wk =   0.0039062
        k(  254) = (   0.3750000  -0.1250000  -0.3750000), wk =   0.0039062
        k(  255) = (   0.3750000  -0.1250000  -0.2500000), wk =   0.0039062
        k(  256) = (   0.3750000  -0.1250000  -0.1250000), wk =   0.0039062
        k(  257) = (  -0.5000000   0.0000000  -0.0000000), wk =   0.0039062
        k(  258) = (  -0.5000000   0.0000000   0.1250000), wk =   0.0039062
        k(  259) = (  -0.5000000   0.0000000   0.2500000), wk =   0.0039062
        k(  260) = (  -0.5000000   0.0000000   0.3750000), wk =   0.0039062
        k(  261) = (  -0.5000000   0.0000000  -0.5000000), wk =   0.0039062
        k(  262) = (  -0.5000000   0.0000000  -0.3750000), wk =   0.0039062
        k(  263) = (  -0.5000000   0.0000000  -0.2500000), wk =   0.0039062
        k(  264) = (  -0.5000000   0.0000000  -0.1250000), wk =   0.0039062
        k(  265) = (  -0.5000000   0.1250000  -0.0000000), wk =   0.0039062
        k(  266) = (  -0.5000000   0.1250000   0.1250000), wk =   0.0039062
        k(  267) = (  -0.5000000   0.1250000   0.2500000), wk =   0.0039062
        k(  268) = (  -0.5000000   0.1250000   0.3750000), wk =   0.0039062
        k(  269) = (  -0.5000000   0.1250000  -0.5000000), wk =   0.0039062
        k(  270) = (  -0.5000000   0.1250000  -0.3750000), wk =   0.0039062
        k(  271) = (  -0.5000000   0.1250000  -0.2500000), wk =   0.0039062
        k(  272) = (  -0.5000000   0.1250000  -0.1250000), wk =   0.0039062
        k(  273) = (  -0.5000000   0.2500000  -0.0000000), wk =   0.0039062
        k(  274) = (  -0.5000000   0.2500000   0.1250000), wk =   0.0039062
        k(  275) = (  -0.5000000   0.2500000   0.2500000), wk =   0.0039062
        k(  276) = (  -0.5000000   0.2500000   0.3750000), wk =   0.0039062
        k(  277) = (  -0.5000000   0.2500000  -0.5000000), wk =   0.0039062
        k(  278) = (  -0.5000000   0.2500000  -0.3750000), wk =   0.0039062
        k(  279) = (  -0.5000000   0.2500000  -0.2500000), wk =   0.0039062
        k(  280) = (  -0.5000000   0.2500000  -0.1250000), wk =   0.0039062
        k(  281) = (  -0.5000000   0.3750000  -0.0000000), wk =   0.0039062
        k(  282) = (  -0.5000000   0.3750000   0.1250000), wk =   0.0039062
        k(  283) = (  -0.5000000   0.3750000   0.2500000), wk =   0.0039062
        k(  284) = (  -0.5000000   0.3750000   0.3750000), wk =   0.0039062
        k(  285) = (  -0.5000000   0.3750000  -0.5000000), wk =   0.0039062
        k(  286) = (  -0.5000000   0.3750000  -0.3750000), wk =   0.0039062
        k(  287) = (  -0.5000000   0.3750000  -0.2500000), wk =   0.0039062
        k(  288) = (  -0.5000000   0.3750000  -0.1250000), wk =   0.0039062
        k(  289) = (  -0.5000000  -0.5000000   0.0000000), wk =   0.0039062
        k(  290) = (  -0.5000000  -0.5000000   0.1250000), wk =   0.0039062
        k(  291) = (  -0.5000000  -0.5000000   0.2500000), wk =   0.0039062
        k(  292) = (  -0.5000000  -0.5000000   0.3750000), wk =   0.0039062
        k(  293) = (  -0.5000000  -0.5000000  -0.5000000), wk =   0.0039062
        k(  294) = (  -0.5000000  -0.5000000  -0.3750000), wk =   0.0039062
        k(  295) = (  -0.5000000  -0.5000000  -0.2500000), wk =   0.0039062
        k(  296) = (  -0.5000000  -0.5000000  -0.1250000), wk =   0.0039062
        k(  297) = (  -0.5000000  -0.3750000   0.0000000), wk =   0.0039062
        k(  298) = (  -0.5000000  -0.3750000   0.1250000), wk =   0.0039062
        k(  299) = (  -0.5000000  -0.3750000   0.2500000), wk =   0.0039062
        k(  300) = (  -0.5000000  -0.3750000   0.3750000), wk =   0.0039062
        k(  301) = (  -0.5000000  -0.3750000  -0.5000000), wk =   0.0039062
        k(  302) = (  -0.5000000  -0.3750000  -0.3750000), wk =   0.0039062
        k(  303) = (  -0.5000000  -0.3750000  -0.2500000), wk =   0.0039062
        k(  304) = (  -0.5000000  -0.3750000  -0.1250000), wk =   0.0039062
        k(  305) = (  -0.5000000  -0.2500000   0.0000000), wk =   0.0039062
        k(  306) = (  -0.5000000  -0.2500000   0.1250000), wk =   0.0039062
        k(  307) = (  -0.5000000  -0.2500000   0.2500000), wk =   0.0039062
        k(  308) = (  -0.5000000  -0.2500000   0.3750000), wk =   0.0039062
        k(  309) = (  -0.5000000  -0.2500000  -0.5000000), wk =   0.0039062
        k(  310) = (  -0.5000000  -0.2500000  -0.3750000), wk =   0.0039062
        k(  311) = (  -0.5000000  -0.2500000  -0.2500000), wk =   0.0039062
        k(  312) = (  -0.5000000  -0.2500000  -0.1250000), wk =   0.0039062
        k(  313) = (  -0.5000000  -0.1250000   0.0000000), wk =   0.0039062
        k(  314) = (  -0.5000000  -0.1250000   0.1250000), wk =   0.0039062
        k(  315) = (  -0.5000000  -0.1250000   0.2500000), wk =   0.0039062
        k(  316) = (  -0.5000000  -0.1250000   0.3750000), wk =   0.0039062
        k(  317) = (  -0.5000000  -0.1250000  -0.5000000), wk =   0.0039062
        k(  318) = (  -0.5000000  -0.1250000  -0.3750000), wk =   0.0039062
        k(  319) = (  -0.5000000  -0.1250000  -0.2500000), wk =   0.0039062
        k(  320) = (  -0.5000000  -0.1250000  -0.1250000), wk =   0.0039062
        k(  321) = (  -0.3750000   0.0000000   0.0000000), wk =   0.0039062
        k(  322) = (  -0.3750000   0.0000000   0.1250000), wk =   0.0039062
        k(  323) = (  -0.3750000   0.0000000   0.2500000), wk =   0.0039062
        k(  324) = (  -0.3750000   0.0000000   0.3750000), wk =   0.0039062
        k(  325) = (  -0.3750000   0.0000000  -0.5000000), wk =   0.0039062
        k(  326) = (  -0.3750000   0.0000000  -0.3750000), wk =   0.0039062
        k(  327) = (  -0.3750000   0.0000000  -0.2500000), wk =   0.0039062
        k(  328) = (  -0.3750000   0.0000000  -0.1250000), wk =   0.0039062
        k(  329) = (  -0.3750000   0.1250000  -0.0000000), wk =   0.0039062
        k(  330) = (  -0.3750000   0.1250000   0.1250000), wk =   0.0039062
        k(  331) = (  -0.3750000   0.1250000   0.2500000), wk =   0.0039062
        k(  332) = (  -0.3750000   0.1250000   0.3750000), wk =   0.0039062
        k(  333) = (  -0.3750000   0.1250000  -0.5000000), wk =   0.0039062
        k(  334) = (  -0.3750000   0.1250000  -0.3750000), wk =   0.0039062
        k(  335) = (  -0.3750000   0.1250000  -0.2500000), wk =   0.0039062
        k(  336) = (  -0.3750000   0.1250000  -0.1250000), wk =   0.0039062
        k(  337) = (  -0.3750000   0.2500000  -0.0000000), wk =   0.0039062
        k(  338) = (  -0.3750000   0.2500000   0.1250000), wk =   0.0039062
        k(  339) = (  -0.3750000   0.2500000   0.2500000), wk =   0.0039062
        k(  340) = (  -0.3750000   0.2500000   0.3750000), wk =   0.0039062
        k(  341) = (  -0.3750000   0.2500000  -0.5000000), wk =   0.0039062
        k(  342) = (  -0.3750000   0.2500000  -0.3750000), wk =   0.0039062
        k(  343) = (  -0.3750000   0.2500000  -0.2500000), wk =   0.0039062
        k(  344) = (  -0.3750000   0.2500000  -0.1250000), wk =   0.0039062
        k(  345) = (  -0.3750000   0.3750000  -0.0000000), wk =   0.0039062
        k(  346) = (  -0.3750000   0.3750000   0.1250000), wk =   0.0039062
        k(  347) = (  -0.3750000   0.3750000   0.2500000), wk =   0.0039062
        k(  348) = (  -0.3750000   0.3750000   0.3750000), wk =   0.0039062
        k(  349) = (  -0.3750000   0.3750000  -0.5000000), wk =   0.0039062
        k(  350) = (  -0.3750000   0.3750000  -0.3750000), wk =   0.0039062
        k(  351) = (  -0.3750000   0.3750000  -0.2500000), wk =   0.0039062
        k(  352) = (  -0.3750000   0.3750000  -0.1250000), wk =   0.0039062
        k(  353) = (  -0.3750000  -0.5000000   0.0000000), wk =   0.0039062
        k(  354) = (  -0.3750000  -0.5000000   0.1250000), wk =   0.0039062
        k(  355) = (  -0.3750000  -0.5000000   0.2500000), wk =   0.0039062
        k(  356) = (  -0.3750000  -0.5000000   0.3750000), wk =   0.0039062
        k(  357) = (  -0.3750000  -0.5000000  -0.5000000), wk =   0.0039062
        k(  358) = (  -0.3750000  -0.5000000  -0.3750000), wk =   0.0039062
        k(  359) = (  -0.3750000  -0.5000000  -0.2500000), wk =   0.0039062
        k(  360) = (  -0.3750000  -0.5000000  -0.1250000), wk =   0.0039062
        k(  361) = (  -0.3750000  -0.3750000  -0.0000000), wk =   0.0039062
        k(  362) = (  -0.3750000  -0.3750000   0.1250000), wk =   0.0039062
        k(  363) = (  -0.3750000  -0.3750000   0.2500000), wk =   0.0039062
        k(  364) = (  -0.3750000  -0.3750000   0.3750000), wk =   0.0039062
        k(  365) = (  -0.3750000  -0.3750000  -0.5000000), wk =   0.0039062
        k(  366) = (  -0.3750000  -0.3750000  -0.3750000), wk =   0.0039062
        k(  367) = (  -0.3750000  -0.3750000  -0.2500000), wk =   0.0039062
        k(  368) = (  -0.3750000  -0.3750000  -0.1250000), wk =   0.0039062
        k(  369) = (  -0.3750000  -0.2500000  -0.0000000), wk =   0.0039062
        k(  370) = (  -0.3750000  -0.2500000   0.1250000), wk =   0.0039062
        k(  371) = (  -0.3750000  -0.2500000   0.2500000), wk =   0.0039062
        k(  372) = (  -0.3750000  -0.2500000   0.3750000), wk =   0.0039062
        k(  373) = (  -0.3750000  -0.2500000  -0.5000000), wk =   0.0039062
        k(  374) = (  -0.3750000  -0.2500000  -0.3750000), wk =   0.0039062
        k(  375) = (  -0.3750000  -0.2500000  -0.2500000), wk =   0.0039062
        k(  376) = (  -0.3750000  -0.2500000  -0.1250000), wk =   0.0039062
        k(  377) = (  -0.3750000  -0.1250000   0.0000000), wk =   0.0039062
        k(  378) = (  -0.3750000  -0.1250000   0.1250000), wk =   0.0039062
        k(  379) = (  -0.3750000  -0.1250000   0.2500000), wk =   0.0039062
        k(  380) = (  -0.3750000  -0.1250000   0.3750000), wk =   0.0039062
        k(  381) = (  -0.3750000  -0.1250000  -0.5000000), wk =   0.0039062
        k(  382) = (  -0.3750000  -0.1250000  -0.3750000), wk =   0.0039062
        k(  383) = (  -0.3750000  -0.1250000  -0.2500000), wk =   0.0039062
        k(  384) = (  -0.3750000  -0.1250000  -0.1250000), wk =   0.0039062
        k(  385) = (  -0.2500000   0.0000000  -0.0000000), wk =   0.0039062
        k(  386) = (  -0.2500000   0.0000000   0.1250000), wk =   0.0039062
        k(  387) = (  -0.2500000   0.0000000   0.2500000), wk =   0.0039062
        k(  388) = (  -0.2500000   0.0000000   0.3750000), wk =   0.0039062
        k(  389) = (  -0.2500000   0.0000000  -0.5000000), wk =   0.0039062
        k(  390) = (  -0.2500000   0.0000000  -0.3750000), wk =   0.0039062
        k(  391) = (  -0.2500000   0.0000000  -0.2500000), wk =   0.0039062
        k(  392) = (  -0.2500000   0.0000000  -0.1250000), wk =   0.0039062
        k(  393) = (  -0.2500000   0.1250000  -0.0000000), wk =   0.0039062
        k(  394) = (  -0.2500000   0.1250000   0.1250000), wk =   0.0039062
        k(  395) = (  -0.2500000   0.1250000   0.2500000), wk =   0.0039062
        k(  396) = (  -0.2500000   0.1250000   0.3750000), wk =   0.0039062
        k(  397) = (  -0.2500000   0.1250000  -0.5000000), wk =   0.0039062
        k(  398) = (  -0.2500000   0.1250000  -0.3750000), wk =   0.0039062
        k(  399) = (  -0.2500000   0.1250000  -0.2500000), wk =   0.0039062
        k(  400) = (  -0.2500000   0.1250000  -0.1250000), wk =   0.0039062
        k(  401) = (  -0.2500000   0.2500000   0.0000000), wk =   0.0039062
        k(  402) = (  -0.2500000   0.2500000   0.1250000), wk =   0.0039062
        k(  403) = (  -0.2500000   0.2500000   0.2500000), wk =   0.0039062
        k(  404) = (  -0.2500000   0.2500000   0.3750000), wk =   0.0039062
        k(  405) = (  -0.2500000   0.2500000  -0.5000000), wk =   0.0039062
        k(  406) = (  -0.2500000   0.2500000  -0.3750000), wk =   0.0039062
        k(  407) = (  -0.2500000   0.2500000  -0.2500000), wk =   0.0039062
        k(  408) = (  -0.2500000   0.2500000  -0.1250000), wk =   0.0039062
        k(  409) = (  -0.2500000   0.3750000  -0.0000000), wk =   0.0039062
        k(  410) = (  -0.2500000   0.3750000   0.1250000), wk =   0.0039062
        k(  411) = (  -0.2500000   0.3750000   0.2500000), wk =   0.0039062
        k(  412) = (  -0.2500000   0.3750000   0.3750000), wk =   0.0039062
        k(  413) = (  -0.2500000   0.3750000  -0.5000000), wk =   0.0039062
        k(  414) = (  -0.2500000   0.3750000  -0.3750000), wk =   0.0039062
        k(  415) = (  -0.2500000   0.3750000  -0.2500000), wk =   0.0039062
        k(  416) = (  -0.2500000   0.3750000  -0.1250000), wk =   0.0039062
        k(  417) = (  -0.2500000  -0.5000000   0.0000000), wk =   0.0039062
        k(  418) = (  -0.2500000  -0.5000000   0.1250000), wk =   0.0039062
        k(  419) = (  -0.2500000  -0.5000000   0.2500000), wk =   0.0039062
        k(  420) = (  -0.2500000  -0.5000000   0.3750000), wk =   0.0039062
        k(  421) = (  -0.2500000  -0.5000000  -0.5000000), wk =   0.0039062
        k(  422) = (  -0.2500000  -0.5000000  -0.3750000), wk =   0.0039062
        k(  423) = (  -0.2500000  -0.5000000  -0.2500000), wk =   0.0039062
        k(  424) = (  -0.2500000  -0.5000000  -0.1250000), wk =   0.0039062
        k(  425) = (  -0.2500000  -0.3750000   0.0000000), wk =   0.0039062
        k(  426) = (  -0.2500000  -0.3750000   0.1250000), wk =   0.0039062
        k(  427) = (  -0.2500000  -0.3750000   0.2500000), wk =   0.0039062
        k(  428) = (  -0.2500000  -0.3750000   0.3750000), wk =   0.0039062
        k(  429) = (  -0.2500000  -0.3750000  -0.5000000), wk =   0.0039062
        k(  430) = (  -0.2500000  -0.3750000  -0.3750000), wk =   0.0039062
        k(  431) = (  -0.2500000  -0.3750000  -0.2500000), wk =   0.0039062
        k(  432) = (  -0.2500000  -0.3750000  -0.1250000), wk =   0.0039062
        k(  433) = (  -0.2500000  -0.2500000   0.0000000), wk =   0.0039062
        k(  434) = (  -0.2500000  -0.2500000   0.1250000), wk =   0.0039062
        k(  435) = (  -0.2500000  -0.2500000   0.2500000), wk =   0.0039062
        k(  436) = (  -0.2500000  -0.2500000   0.3750000), wk =   0.0039062
        k(  437) = (  -0.2500000  -0.2500000  -0.5000000), wk =   0.0039062
        k(  438) = (  -0.2500000  -0.2500000  -0.3750000), wk =   0.0039062
        k(  439) = (  -0.2500000  -0.2500000  -0.2500000), wk =   0.0039062
        k(  440) = (  -0.2500000  -0.2500000  -0.1250000), wk =   0.0039062
        k(  441) = (  -0.2500000  -0.1250000   0.0000000), wk =   0.0039062
        k(  442) = (  -0.2500000  -0.1250000   0.1250000), wk =   0.0039062
        k(  443) = (  -0.2500000  -0.1250000   0.2500000), wk =   0.0039062
        k(  444) = (  -0.2500000  -0.1250000   0.3750000), wk =   0.0039062
        k(  445) = (  -0.2500000  -0.1250000  -0.5000000), wk =   0.0039062
        k(  446) = (  -0.2500000  -0.1250000  -0.3750000), wk =   0.0039062
        k(  447) = (  -0.2500000  -0.1250000  -0.2500000), wk =   0.0039062
        k(  448) = (  -0.2500000  -0.1250000  -0.1250000), wk =   0.0039062
        k(  449) = (  -0.1250000   0.0000000  -0.0000000), wk =   0.0039062
        k(  450) = (  -0.1250000   0.0000000   0.1250000), wk =   0.0039062
        k(  451) = (  -0.1250000   0.0000000   0.2500000), wk =   0.0039062
        k(  452) = (  -0.1250000   0.0000000   0.3750000), wk =   0.0039062
        k(  453) = (  -0.1250000   0.0000000  -0.5000000), wk =   0.0039062
        k(  454) = (  -0.1250000   0.0000000  -0.3750000), wk =   0.0039062
        k(  455) = (  -0.1250000   0.0000000  -0.2500000), wk =   0.0039062
        k(  456) = (  -0.1250000   0.0000000  -0.1250000), wk =   0.0039062
        k(  457) = (  -0.1250000   0.1250000   0.0000000), wk =   0.0039062
        k(  458) = (  -0.1250000   0.1250000   0.1250000), wk =   0.0039062
        k(  459) = (  -0.1250000   0.1250000   0.2500000), wk =   0.0039062
        k(  460) = (  -0.1250000   0.1250000   0.3750000), wk =   0.0039062
        k(  461) = (  -0.1250000   0.1250000  -0.5000000), wk =   0.0039062
        k(  462) = (  -0.1250000   0.1250000  -0.3750000), wk =   0.0039062
        k(  463) = (  -0.1250000   0.1250000  -0.2500000), wk =   0.0039062
        k(  464) = (  -0.1250000   0.1250000  -0.1250000), wk =   0.0039062
        k(  465) = (  -0.1250000   0.2500000  -0.0000000), wk =   0.0039062
        k(  466) = (  -0.1250000   0.2500000   0.1250000), wk =   0.0039062
        k(  467) = (  -0.1250000   0.2500000   0.2500000), wk =   0.0039062
        k(  468) = (  -0.1250000   0.2500000   0.3750000), wk =   0.0039062
        k(  469) = (  -0.1250000   0.2500000  -0.5000000), wk =   0.0039062
        k(  470) = (  -0.1250000   0.2500000  -0.3750000), wk =   0.0039062
        k(  471) = (  -0.1250000   0.2500000  -0.2500000), wk =   0.0039062
        k(  472) = (  -0.1250000   0.2500000  -0.1250000), wk =   0.0039062
        k(  473) = (  -0.1250000   0.3750000  -0.0000000), wk =   0.0039062
        k(  474) = (  -0.1250000   0.3750000   0.1250000), wk =   0.0039062
        k(  475) = (  -0.1250000   0.3750000   0.2500000), wk =   0.0039062
        k(  476) = (  -0.1250000   0.3750000   0.3750000), wk =   0.0039062
        k(  477) = (  -0.1250000   0.3750000  -0.5000000), wk =   0.0039062
        k(  478) = (  -0.1250000   0.3750000  -0.3750000), wk =   0.0039062
        k(  479) = (  -0.1250000   0.3750000  -0.2500000), wk =   0.0039062
        k(  480) = (  -0.1250000   0.3750000  -0.1250000), wk =   0.0039062
        k(  481) = (  -0.1250000  -0.5000000   0.0000000), wk =   0.0039062
        k(  482) = (  -0.1250000  -0.5000000   0.1250000), wk =   0.0039062
        k(  483) = (  -0.1250000  -0.5000000   0.2500000), wk =   0.0039062
        k(  484) = (  -0.1250000  -0.5000000   0.3750000), wk =   0.0039062
        k(  485) = (  -0.1250000  -0.5000000  -0.5000000), wk =   0.0039062
[...]
     1.0000   1.0000   0.0000   0.0000

          k =-0.2701-0.2864 0.2263 (   438 PWs)   bands (ev):

     1.1144   3.5463  12.7456  14.6613

     occupation numbers 
     1.0000   1.0000   0.0000   0.0000

          k =-0.2428-0.2799-0.3462 (   438 PWs)   bands (ev):

     1.8760   2.4880  13.3864  14.1290

     occupation numbers 
     1.0000   1.0000   0.0000   0.0000

          k =-0.2467-0.2809-0.2644 (   437 PWs)   bands (ev):

     1.1888   3.4159  12.8997  14.6859

     occupation numbers 
     1.0000   1.0000   0.0000   0.0000

          k =-0.2506-0.2818-0.1826 (   441 PWs)   bands (ev):

     0.4844   4.8827  12.1496  14.5339

     occupation numbers 
     1.0000   1.0000   0.0000   0.0000

          k =-0.2545-0.2827-0.1008 (   446 PWs)   bands (ev):

     0.0491   6.5234  11.0323  13.4821

     occupation numbers 
     1.0000   1.0000   0.0000   0.0000

          k =-0.1270-0.0672-0.0075 (   439 PWs)   bands (ev):

    -2.7580   4.4261   9.9157  20.2216

     occupation numbers 
     1.0000   1.0000   0.0000   0.0000

          k =-0.1309-0.0681 0.0743 (   442 PWs)   bands (ev):

    -2.6220   3.6619  10.9707  20.3743

     occupation numbers 
     1.0000   1.0000   0.0000   0.0000

          k =-0.1348-0.0690 0.1560 (   449 PWs)   bands (ev):

    -2.2110   2.1984  13.3254  20.6883

     occupation numbers 
     1.0000   1.0000   0.0000   0.0000

          k =-0.1387-0.0699 0.2378 (   450 PWs)   bands (ev):

    -1.5334   0.7682  16.1516  20.8871

     occupation numbers 
     1.0000   1.0000   0.0000   0.0000

          k =-0.1113-0.0634-0.3347 (   450 PWs)   bands (ev):

    -0.8005  -0.2318  18.6776  19.6271

     occupation numbers 
     1.0000   1.0000   0.0000   0.0000

          k =-0.1152-0.0644-0.2529 (   449 PWs)   bands (ev):

    -1.5170   0.7393  16.3412  20.4422

     occupation numbers 
     1.0000   1.0000   0.0000   0.0000

          k =-0.1191-0.0653-0.1711 (   447 PWs)   bands (ev):

    -2.2006   2.1637  13.4416  20.4565

     occupation numbers 
     1.0000   1.0000   0.0000   0.0000

          k =-0.1230-0.0662-0.0893 (   442 PWs)   bands (ev):

    -2.6169   3.6296  11.0417  20.2742

     occupation numbers 
     1.0000   1.0000   0.0000   0.0000

          k =-0.1225 0.0822-0.0036 (   443 PWs)   bands (ev):

    -2.7398   4.4721   9.8426  21.3777

     occupation numbers 
     1.0000   1.0000   0.0000   0.0000

          k =-0.1264 0.0813 0.0782 (   444 PWs)   bands (ev):

    -2.5980   3.6592  10.9799  21.4871

     occupation numbers 
     1.0000   1.0000   0.0000   0.0000

          k =-0.1303 0.0803 0.1600 (   446 PWs)   bands (ev):

    -2.1822   2.1765  13.4198  21.8599

     occupation numbers 
     1.0000   1.0000   0.0000   0.0000

          k =-0.1342 0.0794 0.2418 (   450 PWs)   bands (ev):

    -1.5015   0.7458  16.4088  22.1634

     occupation numbers 
     1.0000   1.0000   0.0000   0.0000

          k =-0.1068 0.0859-0.3307 (   449 PWs)   bands (ev):

    -0.7887  -0.2214  19.2454  20.1088

     occupation numbers 
     1.0000   1.0000   0.0000   0.0000

          k =-0.1107 0.0850-0.2489 (   455 PWs)   bands (ev):

    -1.5236   0.7801  16.3588  22.8145

     occupation numbers 
     1.0000   1.0000   0.0000   0.0000

          k =-0.1146 0.0841-0.1672 (   449 PWs)   bands (ev):

    -2.1988   2.2133  13.3763  22.0215

     occupation numbers 
     1.0000   1.0000   0.0000   0.0000

          k =-0.1185 0.0831-0.0854 (   446 PWs)   bands (ev):

    -2.6064   3.6898  10.9453  21.5495

     occupation numbers 
     1.0000   1.0000   0.0000   0.0000

          k =-0.1179 0.2316 0.0004 (   449 PWs)   bands (ev):

    -1.7927   5.7472   9.8659  18.6398

     occupation numbers 
     1.0000   1.0000   0.0000   0.0000

          k =-0.1219 0.2306 0.0822 (   444 PWs)   bands (ev):

    -1.6447   4.7438  11.1813  18.7606

     occupation numbers 
     1.0000   1.0000   0.0000   0.0000

          k =-0.1258 0.2297 0.1639 (   450 PWs)   bands (ev):

    -1.2239   3.1424  13.6885  19.1845

     occupation numbers 
     1.0000   1.0000   0.0000   0.0000

          k =-0.1297 0.2288 0.2457 (   446 PWs)   bands (ev):

    -0.5391   1.6743  16.5847  19.7388

     occupation numbers 
     1.0000   1.0000   0.0000   0.0000

          k =-0.1023 0.2353-0.3268 (   444 PWs)   bands (ev):

     0.1461   0.7314  19.4101  19.4542

     occupation numbers 
     1.0000   1.0000   0.0000   0.0000

          k =-0.1062 0.2343-0.2450 (   445 PWs)   bands (ev):

    -0.6027   1.7735  16.5110  20.1472

     occupation numbers 
     1.0000   1.0000   0.0000   0.0000

          k =-0.1101 0.2334-0.1632 (   447 PWs)   bands (ev):

    -1.2685   3.2530  13.5758  19.2752

     occupation numbers 
     1.0000   1.0000   0.0000   0.0000

          k =-0.1140 0.2325-0.0814 (   448 PWs)   bands (ev):

    -1.6672   4.8436  11.0762  18.7636

     occupation numbers 
     1.0000   1.0000   0.0000   0.0000

          k =-0.1134 0.3809 0.0043 (   443 PWs)   bands (ev):

     0.0884   8.2300   9.3749  14.3118

     occupation numbers 
     1.0000   1.0000   0.0000   0.0000

          k =-0.1174 0.3800 0.0861 (   442 PWs)   bands (ev):

     0.2396   6.6464  10.9881  14.6090

     occupation numbers 
     1.0000   1.0000   0.0000   0.0000

          k =-0.1213 0.3791 0.1679 (   444 PWs)   bands (ev):

     0.6545   4.9128  12.7534  15.5479

     occupation numbers 
     1.0000   1.0000   0.0000   0.0000

          k =-0.1252 0.3781 0.2497 (   445 PWs)   bands (ev):

     1.3250   3.4440  14.0996  17.0455

     occupation numbers 
     1.0000   1.0000   0.0000   0.0000

          k =-0.0978 0.3846-0.3228 (   446 PWs)   bands (ev):

     1.9590   2.5608  15.1801  15.9778

     occupation numbers 
     1.0000   1.0000   0.0000   0.0000

          k =-0.1017 0.3837-0.2410 (   445 PWs)   bands (ev):

     1.2199   3.6036  14.4931  16.7021

     occupation numbers 
     1.0000   1.0000   0.0000   0.0000

          k =-0.1056 0.3828-0.1593 (   442 PWs)   bands (ev):

     0.5805   5.0887  12.9744  15.4092

     occupation numbers 
     1.0000   1.0000   0.0000   0.0000

          k =-0.1095 0.3818-0.0775 (   443 PWs)   bands (ev):

     0.2029   6.8141  10.9811  14.5467

     occupation numbers 
     1.0000   1.0000   0.0000   0.0000

          k =-0.1450-0.6646-0.0233 (   445 PWs)   bands (ev):

     2.8344   6.5653  11.7961  13.0953

     occupation numbers 
     1.0000   1.0000   0.0000   0.0000

          k =-0.1489-0.6655 0.0585 (   447 PWs)   bands (ev):

     2.9715   6.4027  10.9998  14.0654

     occupation numbers 
     1.0000   1.0000   0.0000   0.0000

          k =-0.1528-0.6664 0.1402 (   447 PWs)   bands (ev):

     3.3243   5.9505  10.4489  13.8507

     occupation numbers 
     1.0000   1.0000   0.0000   0.0000

          k =-0.1567-0.6674 0.2220 (   444 PWs)   bands (ev):

     3.8627   5.2577  10.5164  12.5317

     occupation numbers 
     1.0000   1.0000   0.0000   0.0000

          k =-0.1293-0.6609-0.3505 (   447 PWs)   bands (ev):

     4.2821   4.7788  11.0482  11.5749

     occupation numbers 
     1.0000   1.0000   0.0000   0.0000

          k =-0.1333-0.6618-0.2687 (   443 PWs)   bands (ev):

     3.7253   5.4351  10.8166  12.1481

     occupation numbers 
     1.0000   1.0000   0.0000   0.0000

          k =-0.1372-0.6627-0.1869 (   442 PWs)   bands (ev):

     3.2248   6.0990  10.7352  13.4197

     occupation numbers 
     1.0000   1.0000   0.0000   0.0000

          k =-0.1411-0.6636-0.1051 (   448 PWs)   bands (ev):

     2.9204   6.4810  11.2658  13.9720

     occupation numbers 
     1.0000   1.0000   0.0000   0.0000

          k =-0.1405-0.5152-0.0194 (   449 PWs)   bands (ev):

     2.7309   6.7047  11.4304  13.4770

     occupation numbers 
     1.0000   1.0000   0.0000   0.0000

          k =-0.1444-0.5161 0.0624 (   448 PWs)   bands (ev):

     2.8246   6.5871  11.2759  13.5134

     occupation numbers 
     1.0000   1.0000   0.0000   0.0000

          k =-0.1483-0.5171 0.1442 (   448 PWs)   bands (ev):

     3.1496   6.1476  10.9092  12.9169

     occupation numbers 
     1.0000   1.0000   0.0000   0.0000

          k =-0.1522-0.5180 0.2260 (   443 PWs)   bands (ev):

     3.6795   5.4491  10.9347  11.9282

     occupation numbers 
     1.0000   1.0000   0.0000   0.0000

          k =-0.1248-0.5115-0.3465 (   442 PWs)   bands (ev):

     4.2585   4.7754  11.0396  11.4869

     occupation numbers 
     1.0000   1.0000   0.0000   0.0000

          k =-0.1287-0.5124-0.2647 (   445 PWs)   bands (ev):

     3.8152   5.2775  10.6039  12.2281

     occupation numbers 
     1.0000   1.0000   0.0000   0.0000

          k =-0.1327-0.5134-0.1830 (   446 PWs)   bands (ev):

     3.2471   6.0078  10.5474  13.1831

     occupation numbers 
     1.0000   1.0000   0.0000   0.0000

          k =-0.1366-0.5143-0.1012 (   451 PWs)   bands (ev):

     2.8745   6.5144  10.9340  13.7637

     occupation numbers 
     1.0000   1.0000   0.0000   0.0000

          k =-0.1360-0.3659-0.0154 (   442 PWs)   bands (ev):

     0.0045   7.9816   9.6721  14.4328

     occupation numbers 
     1.0000   1.0000   0.0000   0.0000

          k =-0.1399-0.3668 0.0664 (   444 PWs)   bands (ev):

     0.1232   6.7582  11.0851  14.5170

     occupation numbers 
     1.0000   1.0000   0.0000   0.0000

          k =-0.1438-0.3677 0.1481 (   440 PWs)   bands (ev):

     0.5152   5.0715  13.0955  14.9721

     occupation numbers 
     1.0000   1.0000   0.0000   0.0000

          k =-0.1477-0.3686 0.2299 (   443 PWs)   bands (ev):

     1.1731   3.5872  14.5614  16.1406

     occupation numbers 
     1.0000   1.0000   0.0000   0.0000

          k =-0.1203-0.3621-0.3426 (   448 PWs)   bands (ev):

     1.9246   2.5368  15.0311  15.5744

     occupation numbers 
     1.0000   1.0000   0.0000   0.0000

          k =-0.1242-0.3631-0.2608 (   442 PWs)   bands (ev):

     1.2728   3.4315  14.1478  15.8991

     occupation numbers 
     1.0000   1.0000   0.0000   0.0000

          k =-0.1282-0.3640-0.1790 (   441 PWs)   bands (ev):

     0.5848   4.8980  12.8474  15.3049

     occupation numbers 
     1.0000   1.0000   0.0000   0.0000

          k =-0.1321-0.3649-0.0972 (   443 PWs)   bands (ev):

     0.1589   6.5917  11.0973  14.6710

     occupation numbers 
     1.0000   1.0000   0.0000   0.0000

          k =-0.1315-0.2165-0.0115 (   441 PWs)   bands (ev):

    -1.8461   5.6061  10.1071  17.3737

     occupation numbers 
     1.0000   1.0000   0.0000   0.0000

          k =-0.1354-0.2174 0.0703 (   443 PWs)   bands (ev):

    -1.7167   4.7678  11.2041  17.5297

     occupation numbers 
     1.0000   1.0000   0.0000   0.0000

          k =-0.1393-0.2184 0.1521 (   448 PWs)   bands (ev):

    -1.3111   3.2192  13.5344  17.9074

     occupation numbers 
     1.0000   1.0000   0.0000   0.0000

          k =-0.1432-0.2193 0.2339 (   445 PWs)   bands (ev):

    -0.6349   1.7484  16.0969  18.4837

     occupation numbers 
     1.0000   1.0000   0.0000   0.0000

          k =-0.1158-0.2128-0.3386 (   443 PWs)   bands (ev):

     0.1188   0.7079  17.7676  18.6473

     occupation numbers 
     1.0000   1.0000   0.0000   0.0000

          k =-0.1197-0.2137-0.2568 (   442 PWs)   bands (ev):

    -0.5782   1.6553  16.4656  18.0358

     occupation numbers 
     1.0000   1.0000   0.0000   0.0000

          k =-0.1236-0.2147-0.1751 (   444 PWs)   bands (ev):

    -1.2721   3.1117  13.7619  17.6941

     occupation numbers 
     1.0000   1.0000   0.0000   0.0000

          k =-0.1276-0.2156-0.0933 (   442 PWs)   bands (ev):

    -1.6972   4.6680  11.3547  17.4379

     occupation numbers 
     1.0000   1.0000   0.0000   0.0000

     the Fermi energy is     8.6274 ev

!    total energy              =      -5.35693748 Ry
     estimated scf accuracy    <       0.00553173 Ry
     smearing contrib. (-TS)   =      -0.00001778 Ry
     internal energy E=F+TS    =      -5.35691970 Ry

     The total energy is F=E-TS. E is the sum of the following terms:
     one-electron contribution =       4.12746548 Ry
     hartree contribution      =       0.01427134 Ry
     xc contribution           =      -3.32109616 Ry
     ewald contribution        =      -6.17756035 Ry

     convergence has been achieved in   1 iterations

     Forces acting on atoms (cartesian axes, Ry/au):

     atom    1 type  1   force =    -0.02924782   -0.00454481    0.01073789
     atom    2 type  1   force =     0.02924782    0.00454481   -0.01073789
     The non-local contrib.  to forces
     atom    1 type  1   force =    -0.04766336   -0.01372507    0.04468198
     atom    2 type  1   force =     0.04769654    0.01373765   -0.04470612
     The ionic contribution  to forces
     atom    1 type  1   force =    -0.02896072   -0.00738474    0.10515901
     atom    2 type  1   force =     0.02896072    0.00738474   -0.10515901
     The local contribution  to forces
     atom    1 type  1   force =     0.04667266    0.01633403   -0.15846649
     atom    2 type  1   force =    -0.04668254   -0.01633803    0.15847492
     The core correction contribution to forces
     atom    1 type  1   force =     0.00232210    0.00071821   -0.00320978
     atom    2 type  1   force =    -0.00227714   -0.00070448    0.00316264
     The Hubbard contrib.    to forces
     atom    1 type  1   force =     0.00000000    0.00000000    0.00000000
     atom    2 type  1   force =     0.00000000    0.00000000    0.00000000
     The SCF correction term to forces
     atom    1 type  1   force =    -0.00158496   -0.00047386    0.02254025
     atom    2 type  1   force =     0.00158379    0.00047831   -0.02254324

     Total force =     0.044528     Total SCF correction =     0.031965
     SCF correction compared to forces is large: reduce conv_thr to get better values


     Computing stress (Cartesian axis) and pressure

          total   stress  (Ry/bohr**3)                   (kbar)     P=       70.26
  -0.00033218  -0.00054390  -0.00030974          -48.86      -80.01      -45.57
  -0.00054390   0.00074396   0.00010590          -80.01      109.44       15.58
  -0.00030974   0.00010590   0.00102098          -45.57       15.58      150.19

     kinetic stress (kbar)   2837.30    -70.84    -31.90
                              -70.84   2984.38      8.38
                              -31.90      8.38   2979.85

     local   stress (kbar)    433.35    184.65     34.17
                              184.65    193.70      7.87
                               34.17      7.87    109.25

     nonloc. stress (kbar)    920.62    -29.13     -6.03
                              -29.13    954.29     -1.52
                               -6.03     -1.52    983.61

     hartree stress (kbar)      9.05     -3.77      0.71
                               -3.77     13.85     -0.14
                                0.71     -0.14     -2.66

     exc-cor stress (kbar)    111.09     -2.81     -0.61
                               -2.81    114.97     -0.04
                               -0.61     -0.04    116.76

     corecor stress (kbar)  -1253.11      8.23      2.00
                                8.23  -1264.53      0.11
                                2.00      0.11  -1269.91

     ewald   stress (kbar)  -3107.17   -166.34    -43.90
                             -166.34  -2887.22      0.91
                              -43.90      0.91  -2766.71

     hubbard stress (kbar)      0.00      0.00      0.00
                                0.00      0.00      0.00
                                0.00      0.00      0.00

     DFT-D   stress (kbar)      0.00      0.00      0.00
                                0.00      0.00      0.00
                                0.00      0.00      0.00

     XDM     stress (kbar)      0.00      0.00      0.00
                                0.00      0.00      0.00
                                0.00      0.00      0.00

     dft-nl  stress (kbar)      0.00      0.00      0.00
                                0.00      0.00      0.00
                                0.00      0.00      0.00

     TS-vdW  stress (kbar)      0.00      0.00      0.00
                                0.00      0.00      0.00
                                0.00      0.00      0.00

     MDB     stress (kbar)      0.00      0.00      0.00
                                0.00      0.00      0.00
                                0.00      0.00      0.00

     3D-RISM stress (kbar)      0.00      0.00      0.00
                                0.00      0.00      0.00
                                0.00      0.00      0.00


     Writing all to output data dir ../tmp/Be/Be.save/ :
     XML data file, charge density, pseudopotentials, collected wavefunctions

     init_run     :      1.66s CPU      1.74s WALL (       1 calls)
     electrons    :      5.00s CPU      5.24s WALL (       1 calls)
     forces       :      0.11s CPU      0.11s WALL (       1 calls)
     stress       :      1.01s CPU      1.02s WALL (       1 calls)

     Called by init_run:
     wfcinit      :      1.34s CPU      1.41s WALL (       1 calls)
     wfcinit:atom :      0.04s CPU      0.04s WALL (     512 calls)
     wfcinit:wfcr :      1.12s CPU      1.17s WALL (     512 calls)
     potinit      :      0.02s CPU      0.02s WALL (       1 calls)
     hinit0       :      0.27s CPU      0.28s WALL (       1 calls)

     Called by electrons:
     c_bands      :      4.52s CPU      4.75s WALL (       2 calls)
     sum_band     :      0.47s CPU      0.48s WALL (       2 calls)
     v_of_rho     :      0.01s CPU      0.01s WALL (       2 calls)
     v_h          :      0.00s CPU      0.00s WALL (       2 calls)
     v_xc         :      0.01s CPU      0.01s WALL (       4 calls)
     newd         :      0.01s CPU      0.01s WALL (       2 calls)
     mix_rho      :      0.00s CPU      0.00s WALL (       2 calls)

     Called by c_bands:
     init_us_2    :      0.32s CPU      0.33s WALL (    3584 calls)
     cegterg      :      4.27s CPU      4.47s WALL (    1024 calls)

     Called by sum_band:
     sum_band:wei :      0.00s CPU      0.00s WALL (       2 calls)
     sum_band:loo :      0.46s CPU      0.47s WALL (       2 calls)
     sum_band:buf :      0.00s CPU      0.00s WALL (    1024 calls)
     sum_band:ini :      0.08s CPU      0.09s WALL (    1024 calls)
     sum_band:cal :      0.02s CPU      0.02s WALL (    1024 calls)
     sum_band:bec :      0.00s CPU      0.00s WALL (    1024 calls)
     addusdens    :      0.01s CPU      0.01s WALL (       2 calls)
                                        0.00s GPU  (       2 calls)
     addusd:skk   :      0.00s CPU      0.00s WALL (       2 calls)
                                        0.00s GPU  (       2 calls)

     Called by *egterg:
     cdiaghg      :      0.20s CPU      0.21s WALL (    5249 calls)
     cegterg:over :      0.06s CPU      0.07s WALL (    4737 calls)
     cegterg:upda :      0.08s CPU      0.09s WALL (    4737 calls)
     cegterg:last :      0.11s CPU      0.11s WALL (    3680 calls)
     h_psi        :      4.68s CPU      4.90s WALL (    6273 calls)
     s_psi        :      0.10s CPU      0.11s WALL (    6273 calls)
     g_psi        :      0.03s CPU      0.03s WALL (    4737 calls)

     Called by h_psi:
     h_psi:calbec :      0.11s CPU      0.12s WALL (    6273 calls)
     vloc_psi     :      4.42s CPU      4.62s WALL (    6273 calls)
     add_vuspsi   :      0.11s CPU      0.12s WALL (    6273 calls)

     General routines
     calbec       :      0.15s CPU      0.16s WALL (    9857 calls)
     fft          :      0.12s CPU      0.13s WALL (      48 calls)
     ffts         :      0.00s CPU      0.00s WALL (       2 calls)
     fftw         :      4.23s CPU      4.41s WALL (   45350 calls)


     PWSCF        :      7.87s CPU      8.23s WALL


   This run was terminated on:  18:50:15   6May2024            

=------------------------------------------------------------------------------=
   JOB DONE.
=------------------------------------------------------------------------------=
