
     Program PWSCF v.7.3.1 starts on  6May2024 at 18:50:18 

     This program is part of the open-source Quantum ESPRESSO suite
     for quantum simulation of materials; please cite
         "P. Giannozzi et al., J. Phys.:Condens. Matter 21 395502 (2009);
         "P. Giannozzi et al., J. Phys.:Condens. Matter 29 465901 (2017);
         "P. Giannozzi et al., J. Chem. Phys. 152 154105 (2020);
          URL http://www.quantum-espresso.org", 
     in publications or presentations arising from this work. More details at
     http://www.quantum-espresso.org/quote

     Serial version
     2148 MiB available memory on the printing compute node when the environment starts

     Reading input from Be4.pw.in

     Current dimensions of program PWSCF are:
     Max number of different atomic species (ntypx) = 10
     Max number of k-points (npk) =  40000
     Max angular momentum in pseudopotentials (lmaxx) =  4


     G-vector sticks info
     --------------------
     sticks:   dense  smooth     PW     G-vecs:    dense   smooth      PW
     Sum         199     199     77                 3527     3527     857

     Using Slab Decomposition



     bravais-lattice index     =            0
     lattice parameter (alat)  =       4.1437  a.u.
     unit-cell volume          =     102.3578 (a.u.)^3
     number of atoms/cell      =            2
     number of atomic types    =            1
     number of electrons       =         4.00
     number of Kohn-Sham states=            4
     kinetic-energy cutoff     =      40.0000  Ry
     charge density cutoff     =     160.0000  Ry
     scf convergence threshold =      2.0E-02
     mixing beta               =       0.1000
     number of iterations used =            8  plain     mixing
     Exchange-correlation= PBE
                           (   1   4   3   4   0   0   0)

     celldm(1)=   4.143667  celldm(2)=   0.000000  celldm(3)=   0.000000
     celldm(4)=   0.000000  celldm(5)=   0.000000  celldm(6)=   0.000000

     crystal axes: (cart. coord. in units of alat)
               a(1) = (   0.998472   0.031693  -0.045260 )  
               a(2) = (  -0.536813   0.857713  -0.047030 )  
               a(3) = (  -0.085475   0.029754   1.648421 )  

     reciprocal axes: (cart. coord. in units 2 pi/alat)
               b(1) = (  0.983725  0.617865  0.039856 )  
               b(2) = ( -0.037249  1.141343 -0.022533 )  
               b(3) = (  0.025947  0.049527  0.607093 )  


     PseudoPot. # 1 for Be read from file:
     ../pseudo/Be.pbe-n-rrkjus_psl.1.0.0.UPF
     MD5 check sum: 734a25375992c446e1da9bf329ae4716
     Pseudo is Ultrasoft + core correction, Zval =  2.0
     Generated using &quot;atomic&quot; code by A. Dal Corso  v.6.6
     Using radial grid of 1041 points,  4 beta functions with: 
                l(1) =   0
                l(2) =   0
                l(3) =   1
                l(4) =   1
     Q(r) pseudized with 0 coefficients 


     atomic species   valence    mass     pseudopotential
     Be                2.00     9.01218     Be( 1.00)

     No symmetry found


                                    s                        frac. trans.

      isym =  1     identity                                     

 cryst.   s( 1) = (     1          0          0      )
                  (     0          1          0      )
                  (     0          0          1      )

 cart.    s( 1) = (  1.0000000  0.0000000  0.0000000 )
                  (  0.0000000  1.0000000  0.0000000 )
                  (  0.0000000 -0.0000000  1.0000000 )


   Cartesian axes

     site n.     atom                  positions (alat units)
         1        Be     tau(   1) = (   0.7994051   0.1463943   1.2211569  )
         2        Be     tau(   2) = (  -0.2841065   0.7461290   0.4068917  )

   Crystallographic axes

     site n.     atom                  positions (cryst. coord.)
         1        Be     tau(   1) = (  0.9255169  0.1097925  0.7693479  )
         2        Be     tau(   2) = (  0.1977414  0.8530031  0.2766028  )

     number of k points=   512  Fermi-Dirac smearing, width (Ry)=  0.0019
                       cart. coord. in units 2pi/alat
        k(    1) = (   0.0000000   0.0000000   0.0000000), wk =   0.0039062
        k(    2) = (   0.0032434   0.0061909   0.0758866), wk =   0.0039062
        k(    3) = (   0.0064867   0.0123818   0.1517731), wk =   0.0039062
        k(    4) = (   0.0097301   0.0185726   0.2276597), wk =   0.0039062
        k(    5) = (  -0.0129735  -0.0247635  -0.3035463), wk =   0.0039062
        k(    6) = (  -0.0097301  -0.0185726  -0.2276597), wk =   0.0039062
        k(    7) = (  -0.0064867  -0.0123818  -0.1517731), wk =   0.0039062
        k(    8) = (  -0.0032434  -0.0061909  -0.0758866), wk =   0.0039062
        k(    9) = (  -0.0046562   0.1426678  -0.0028166), wk =   0.0039062
        k(   10) = (  -0.0014128   0.1488587   0.0730700), wk =   0.0039062
        k(   11) = (   0.0018306   0.1550496   0.1489565), wk =   0.0039062
        k(   12) = (   0.0050740   0.1612405   0.2248431), wk =   0.0039062
        k(   13) = (  -0.0176297   0.1179043  -0.3063629), wk =   0.0039062
        k(   14) = (  -0.0143863   0.1240952  -0.2304763), wk =   0.0039062
        k(   15) = (  -0.0111429   0.1302860  -0.1545898), wk =   0.0039062
        k(   16) = (  -0.0078995   0.1364769  -0.0787032), wk =   0.0039062
        k(   17) = (  -0.0093123   0.2853356  -0.0056332), wk =   0.0039062
        k(   18) = (  -0.0060690   0.2915265   0.0702533), wk =   0.0039062
        k(   19) = (  -0.0028256   0.2977174   0.1461399), wk =   0.0039062
        k(   20) = (   0.0004178   0.3039083   0.2220265), wk =   0.0039062
        k(   21) = (  -0.0222858   0.2605721  -0.3091795), wk =   0.0039062
        k(   22) = (  -0.0190425   0.2667630  -0.2332929), wk =   0.0039062
        k(   23) = (  -0.0157991   0.2729539  -0.1574064), wk =   0.0039062
        k(   24) = (  -0.0125557   0.2791447  -0.0815198), wk =   0.0039062
        k(   25) = (  -0.0139685   0.4280034  -0.0084498), wk =   0.0039062
        k(   26) = (  -0.0107251   0.4341943   0.0674367), wk =   0.0039062
        k(   27) = (  -0.0074817   0.4403852   0.1433233), wk =   0.0039062
        k(   28) = (  -0.0042384   0.4465761   0.2192099), wk =   0.0039062
        k(   29) = (  -0.0269420   0.4032399  -0.3119961), wk =   0.0039062
        k(   30) = (  -0.0236986   0.4094308  -0.2361096), wk =   0.0039062
        k(   31) = (  -0.0204552   0.4156217  -0.1602230), wk =   0.0039062
        k(   32) = (  -0.0172119   0.4218126  -0.0843364), wk =   0.0039062
        k(   33) = (   0.0186247  -0.5706713   0.0112664), wk =   0.0039062
        k(   34) = (   0.0218680  -0.5644804   0.0871530), wk =   0.0039062
        k(   35) = (   0.0251114  -0.5582895   0.1630396), wk =   0.0039062
        k(   36) = (   0.0283548  -0.5520986   0.2389262), wk =   0.0039062
        k(   37) = (   0.0056512  -0.5954348  -0.2922798), wk =   0.0039062
        k(   38) = (   0.0088945  -0.5892439  -0.2163933), wk =   0.0039062
        k(   39) = (   0.0121379  -0.5830530  -0.1405067), wk =   0.0039062
        k(   40) = (   0.0153813  -0.5768621  -0.0646201), wk =   0.0039062
        k(   41) = (   0.0139685  -0.4280034   0.0084498), wk =   0.0039062
        k(   42) = (   0.0172119  -0.4218126   0.0843364), wk =   0.0039062
        k(   43) = (   0.0204552  -0.4156217   0.1602230), wk =   0.0039062
        k(   44) = (   0.0236986  -0.4094308   0.2361096), wk =   0.0039062
        k(   45) = (   0.0009950  -0.4527670  -0.2950965), wk =   0.0039062
        k(   46) = (   0.0042384  -0.4465761  -0.2192099), wk =   0.0039062
        k(   47) = (   0.0074817  -0.4403852  -0.1433233), wk =   0.0039062
        k(   48) = (   0.0107251  -0.4341943  -0.0674367), wk =   0.0039062
        k(   49) = (   0.0093123  -0.2853356   0.0056332), wk =   0.0039062
        k(   50) = (   0.0125557  -0.2791447   0.0815198), wk =   0.0039062
        k(   51) = (   0.0157991  -0.2729539   0.1574064), wk =   0.0039062
        k(   52) = (   0.0190425  -0.2667630   0.2332929), wk =   0.0039062
        k(   53) = (  -0.0036612  -0.3100992  -0.2979131), wk =   0.0039062
        k(   54) = (  -0.0004178  -0.3039083  -0.2220265), wk =   0.0039062
        k(   55) = (   0.0028256  -0.2977174  -0.1461399), wk =   0.0039062
        k(   56) = (   0.0060690  -0.2915265  -0.0702533), wk =   0.0039062
        k(   57) = (   0.0046562  -0.1426678   0.0028166), wk =   0.0039062
        k(   58) = (   0.0078995  -0.1364769   0.0787032), wk =   0.0039062
        k(   59) = (   0.0111429  -0.1302860   0.1545898), wk =   0.0039062
        k(   60) = (   0.0143863  -0.1240952   0.2304763), wk =   0.0039062
        k(   61) = (  -0.0083173  -0.1674313  -0.3007297), wk =   0.0039062
        k(   62) = (  -0.0050740  -0.1612405  -0.2248431), wk =   0.0039062
        k(   63) = (  -0.0018306  -0.1550496  -0.1489565), wk =   0.0039062
        k(   64) = (   0.0014128  -0.1488587  -0.0730700), wk =   0.0039062
        k(   65) = (   0.1229656   0.0772331   0.0049820), wk =   0.0039062
        k(   66) = (   0.1262090   0.0834240   0.0808686), wk =   0.0039062
        k(   67) = (   0.1294523   0.0896149   0.1567552), wk =   0.0039062
        k(   68) = (   0.1326957   0.0958057   0.2326417), wk =   0.0039062
        k(   69) = (   0.1099921   0.0524696  -0.2985643), wk =   0.0039062
        k(   70) = (   0.1132355   0.0586604  -0.2226777), wk =   0.0039062
        k(   71) = (   0.1164788   0.0648513  -0.1467911), wk =   0.0039062
        k(   72) = (   0.1197222   0.0710422  -0.0709046), wk =   0.0039062
        k(   73) = (   0.1183094   0.2199009   0.0021654), wk =   0.0039062
        k(   74) = (   0.1215528   0.2260918   0.0780520), wk =   0.0039062
        k(   75) = (   0.1247962   0.2322827   0.1539386), wk =   0.0039062
        k(   76) = (   0.1280395   0.2384736   0.2298251), wk =   0.0039062
        k(   77) = (   0.1053359   0.1951374  -0.3013809), wk =   0.0039062
        k(   78) = (   0.1085793   0.2013283  -0.2254943), wk =   0.0039062
        k(   79) = (   0.1118227   0.2075191  -0.1496077), wk =   0.0039062
        k(   80) = (   0.1150660   0.2137100  -0.0737212), wk =   0.0039062
        k(   81) = (   0.1136533   0.3625687  -0.0006512), wk =   0.0039062
        k(   82) = (   0.1168966   0.3687596   0.0752354), wk =   0.0039062
        k(   83) = (   0.1201400   0.3749505   0.1511219), wk =   0.0039062
        k(   84) = (   0.1233834   0.3811414   0.2270085), wk =   0.0039062
        k(   85) = (   0.1006798   0.3378052  -0.3041975), wk =   0.0039062
        k(   86) = (   0.1039231   0.3439961  -0.2283109), wk =   0.0039062
        k(   87) = (   0.1071665   0.3501870  -0.1524244), wk =   0.0039062
        k(   88) = (   0.1104099   0.3563778  -0.0765378), wk =   0.0039062
        k(   89) = (   0.1089971   0.5052365  -0.0034678), wk =   0.0039062
        k(   90) = (   0.1122405   0.5114274   0.0724188), wk =   0.0039062
        k(   91) = (   0.1154838   0.5176183   0.1483053), wk =   0.0039062
        k(   92) = (   0.1187272   0.5238092   0.2241919), wk =   0.0039062
        k(   93) = (   0.0960236   0.4804730  -0.3070141), wk =   0.0039062
        k(   94) = (   0.0992670   0.4866639  -0.2311275), wk =   0.0039062
        k(   95) = (   0.1025103   0.4928548  -0.1552410), wk =   0.0039062
        k(   96) = (   0.1057537   0.4990457  -0.0793544), wk =   0.0039062
        k(   97) = (   0.1415902  -0.4934382   0.0162485), wk =   0.0039062
        k(   98) = (   0.1448336  -0.4872473   0.0921350), wk =   0.0039062
        k(   99) = (   0.1480770  -0.4810564   0.1680216), wk =   0.0039062
        k(  100) = (   0.1513204  -0.4748655   0.2439082), wk =   0.0039062
        k(  101) = (   0.1286167  -0.5182017  -0.2872978), wk =   0.0039062
        k(  102) = (   0.1318601  -0.5120108  -0.2114113), wk =   0.0039062
        k(  103) = (   0.1351035  -0.5058199  -0.1355247), wk =   0.0039062
        k(  104) = (   0.1383469  -0.4996290  -0.0596381), wk =   0.0039062
        k(  105) = (   0.1369341  -0.3507703   0.0134319), wk =   0.0039062
        k(  106) = (   0.1401775  -0.3445795   0.0893184), wk =   0.0039062
        k(  107) = (   0.1434208  -0.3383886   0.1652050), wk =   0.0039062
        k(  108) = (   0.1466642  -0.3321977   0.2410916), wk =   0.0039062
        k(  109) = (   0.1239606  -0.3755339  -0.2901144), wk =   0.0039062
        k(  110) = (   0.1272040  -0.3693430  -0.2142279), wk =   0.0039062
        k(  111) = (   0.1304473  -0.3631521  -0.1383413), wk =   0.0039062
        k(  112) = (   0.1336907  -0.3569612  -0.0624547), wk =   0.0039062
        k(  113) = (   0.1322779  -0.2081025   0.0106152), wk =   0.0039062
        k(  114) = (   0.1355213  -0.2019116   0.0865018), wk =   0.0039062
        k(  115) = (   0.1387647  -0.1957208   0.1623884), wk =   0.0039062
        k(  116) = (   0.1420080  -0.1895299   0.2382750), wk =   0.0039062
        k(  117) = (   0.1193044  -0.2328661  -0.2929311), wk =   0.0039062
        k(  118) = (   0.1225478  -0.2266752  -0.2170445), wk =   0.0039062
        k(  119) = (   0.1257912  -0.2204843  -0.1411579), wk =   0.0039062
        k(  120) = (   0.1290345  -0.2142934  -0.0652713), wk =   0.0039062
        k(  121) = (   0.1276217  -0.0654347   0.0077986), wk =   0.0039062
        k(  122) = (   0.1308651  -0.0592438   0.0836852), wk =   0.0039062
        k(  123) = (   0.1341085  -0.0530530   0.1595718), wk =   0.0039062
        k(  124) = (   0.1373519  -0.0468621   0.2354583), wk =   0.0039062
        k(  125) = (   0.1146482  -0.0901983  -0.2957477), wk =   0.0039062
        k(  126) = (   0.1178916  -0.0840074  -0.2198611), wk =   0.0039062
        k(  127) = (   0.1211350  -0.0778165  -0.1439745), wk =   0.0039062
        k(  128) = (   0.1243784  -0.0716256  -0.0680879), wk =   0.0039062
        k(  129) = (   0.2459312   0.1544662   0.0099640), wk =   0.0039062
        k(  130) = (   0.2491745   0.1606571   0.0858506), wk =   0.0039062
        k(  131) = (   0.2524179   0.1668480   0.1617372), wk =   0.0039062
        k(  132) = (   0.2556613   0.1730388   0.2376238), wk =   0.0039062
        k(  133) = (   0.2329577   0.1297027  -0.2935823), wk =   0.0039062
        k(  134) = (   0.2362010   0.1358935  -0.2176957), wk =   0.0039062
        k(  135) = (   0.2394444   0.1420844  -0.1418091), wk =   0.0039062
        k(  136) = (   0.2426878   0.1482753  -0.0659225), wk =   0.0039062
        k(  137) = (   0.2412750   0.2971340   0.0071474), wk =   0.0039062
        k(  138) = (   0.2445184   0.3033249   0.0830340), wk =   0.0039062
        k(  139) = (   0.2477617   0.3095158   0.1589206), wk =   0.0039062
        k(  140) = (   0.2510051   0.3157067   0.2348071), wk =   0.0039062
        k(  141) = (   0.2283015   0.2723705  -0.2963989), wk =   0.0039062
        k(  142) = (   0.2315449   0.2785614  -0.2205123), wk =   0.0039062
        k(  143) = (   0.2347882   0.2847522  -0.1446257), wk =   0.0039062
        k(  144) = (   0.2380316   0.2909431  -0.0687392), wk =   0.0039062
        k(  145) = (   0.2366188   0.4398018   0.0043308), wk =   0.0039062
        k(  146) = (   0.2398622   0.4459927   0.0802174), wk =   0.0039062
        k(  147) = (   0.2431056   0.4521836   0.1561040), wk =   0.0039062
        k(  148) = (   0.2463490   0.4583745   0.2319905), wk =   0.0039062
        k(  149) = (   0.2236453   0.4150383  -0.2992155), wk =   0.0039062
        k(  150) = (   0.2268887   0.4212292  -0.2233289), wk =   0.0039062
        k(  151) = (   0.2301321   0.4274201  -0.1474423), wk =   0.0039062
        k(  152) = (   0.2333755   0.4336109  -0.0715558), wk =   0.0039062
        k(  153) = (   0.2319627   0.5824696   0.0015142), wk =   0.0039062
        k(  154) = (   0.2352060   0.5886605   0.0774008), wk =   0.0039062
        k(  155) = (   0.2384494   0.5948514   0.1532873), wk =   0.0039062
        k(  156) = (   0.2416928   0.6010423   0.2291739), wk =   0.0039062
        k(  157) = (   0.2189892   0.5577061  -0.3020321), wk =   0.0039062
        k(  158) = (   0.2222325   0.5638970  -0.2261455), wk =   0.0039062
        k(  159) = (   0.2254759   0.5700879  -0.1502589), wk =   0.0039062
        k(  160) = (   0.2287193   0.5762787  -0.0743724), wk =   0.0039062
        k(  161) = (   0.2645558  -0.4162051   0.0212305), wk =   0.0039062
        k(  162) = (   0.2677992  -0.4100142   0.0971171), wk =   0.0039062
        k(  163) = (   0.2710426  -0.4038233   0.1730036), wk =   0.0039062
        k(  164) = (   0.2742859  -0.3976324   0.2488902), wk =   0.0039062
        k(  165) = (   0.2515823  -0.4409686  -0.2823158), wk =   0.0039062
        k(  166) = (   0.2548257  -0.4347777  -0.2064292), wk =   0.0039062
        k(  167) = (   0.2580691  -0.4285868  -0.1305427), wk =   0.0039062
        k(  168) = (   0.2613125  -0.4223959  -0.0546561), wk =   0.0039062
        k(  169) = (   0.2598997  -0.2735373   0.0184139), wk =   0.0039062
        k(  170) = (   0.2631430  -0.2673464   0.0943004), wk =   0.0039062
        k(  171) = (   0.2663864  -0.2611555   0.1701870), wk =   0.0039062
        k(  172) = (   0.2696298  -0.2549646   0.2460736), wk =   0.0039062
        k(  173) = (   0.2469262  -0.2983008  -0.2851324), wk =   0.0039062
        k(  174) = (   0.2501695  -0.2921099  -0.2092458), wk =   0.0039062
        k(  175) = (   0.2534129  -0.2859190  -0.1333593), wk =   0.0039062
        k(  176) = (   0.2566563  -0.2797281  -0.0574727), wk =   0.0039062
        k(  177) = (   0.2552435  -0.1308694   0.0155973), wk =   0.0039062
        k(  178) = (   0.2584869  -0.1246786   0.0914838), wk =   0.0039062
        k(  179) = (   0.2617302  -0.1184877   0.1673704), wk =   0.0039062
        k(  180) = (   0.2649736  -0.1122968   0.2432570), wk =   0.0039062
        k(  181) = (   0.2422700  -0.1556330  -0.2879490), wk =   0.0039062
        k(  182) = (   0.2455134  -0.1494421  -0.2120625), wk =   0.0039062
        k(  183) = (   0.2487567  -0.1432512  -0.1361759), wk =   0.0039062
        k(  184) = (   0.2520001  -0.1370603  -0.0602893), wk =   0.0039062
        k(  185) = (   0.2505873   0.0117984   0.0127806), wk =   0.0039062
        k(  186) = (   0.2538307   0.0179893   0.0886672), wk =   0.0039062
        k(  187) = (   0.2570741   0.0241801   0.1645538), wk =   0.0039062
        k(  188) = (   0.2603175   0.0303710   0.2404404), wk =   0.0039062
        k(  189) = (   0.2376138  -0.0129652  -0.2907656), wk =   0.0039062
        k(  190) = (   0.2408572  -0.0067743  -0.2148791), wk =   0.0039062
        k(  191) = (   0.2441006  -0.0005834  -0.1389925), wk =   0.0039062
        k(  192) = (   0.2473440   0.0056075  -0.0631059), wk =   0.0039062
        k(  193) = (   0.3688967   0.2316993   0.0149461), wk =   0.0039062
        k(  194) = (   0.3721401   0.2378902   0.0908326), wk =   0.0039062
        k(  195) = (   0.3753835   0.2440811   0.1667192), wk =   0.0039062
        k(  196) = (   0.3786269   0.2502719   0.2426058), wk =   0.0039062
        k(  197) = (   0.3559232   0.2069358  -0.2886002), wk =   0.0039062
        k(  198) = (   0.3591666   0.2131266  -0.2127137), wk =   0.0039062
        k(  199) = (   0.3624100   0.2193175  -0.1368271), wk =   0.0039062
        k(  200) = (   0.3656534   0.2255084  -0.0609405), wk =   0.0039062
        k(  201) = (   0.3642406   0.3743671   0.0121294), wk =   0.0039062
        k(  202) = (   0.3674840   0.3805580   0.0880160), wk =   0.0039062
        k(  203) = (   0.3707273   0.3867489   0.1639026), wk =   0.0039062
        k(  204) = (   0.3739707   0.3929397   0.2397892), wk =   0.0039062
        k(  205) = (   0.3512671   0.3496036  -0.2914169), wk =   0.0039062
        k(  206) = (   0.3545105   0.3557944  -0.2155303), wk =   0.0039062
        k(  207) = (   0.3577538   0.3619853  -0.1396437), wk =   0.0039062
        k(  208) = (   0.3609972   0.3681762  -0.0637571), wk =   0.0039062
        k(  209) = (   0.3595844   0.5170349   0.0093128), wk =   0.0039062
        k(  210) = (   0.3628278   0.5232258   0.0851994), wk =   0.0039062
        k(  211) = (   0.3660712   0.5294167   0.1610860), wk =   0.0039062
        k(  212) = (   0.3693145   0.5356076   0.2369725), wk =   0.0039062
        k(  213) = (   0.3466109   0.4922714  -0.2942335), wk =   0.0039062
        k(  214) = (   0.3498543   0.4984623  -0.2183469), wk =   0.0039062
        k(  215) = (   0.3530977   0.5046531  -0.1424603), wk =   0.0039062
        k(  216) = (   0.3563410   0.5108440  -0.0665737), wk =   0.0039062
        k(  217) = (   0.3549283   0.6597027   0.0064962), wk =   0.0039062
        k(  218) = (   0.3581716   0.6658936   0.0823828), wk =   0.0039062
        k(  219) = (   0.3614150   0.6720845   0.1582694), wk =   0.0039062
        k(  220) = (   0.3646584   0.6782754   0.2341559), wk =   0.0039062
        k(  221) = (   0.3419548   0.6349392  -0.2970501), wk =   0.0039062
        k(  222) = (   0.3451981   0.6411301  -0.2211635), wk =   0.0039062
        k(  223) = (   0.3484415   0.6473210  -0.1452769), wk =   0.0039062
        k(  224) = (   0.3516849   0.6535118  -0.0693904), wk =   0.0039062
        k(  225) = (   0.3875214  -0.3389720   0.0262125), wk =   0.0039062
        k(  226) = (   0.3907648  -0.3327811   0.1020991), wk =   0.0039062
        k(  227) = (   0.3940082  -0.3265902   0.1779856), wk =   0.0039062
        k(  228) = (   0.3972515  -0.3203993   0.2538722), wk =   0.0039062
        k(  229) = (   0.3745479  -0.3637355  -0.2773338), wk =   0.0039062
        k(  230) = (   0.3777913  -0.3575446  -0.2014472), wk =   0.0039062
        k(  231) = (   0.3810347  -0.3513537  -0.1255606), wk =   0.0039062
        k(  232) = (   0.3842780  -0.3451629  -0.0496741), wk =   0.0039062
        k(  233) = (   0.3828652  -0.1963042   0.0233959), wk =   0.0039062
        k(  234) = (   0.3861086  -0.1901133   0.0992825), wk =   0.0039062
        k(  235) = (   0.3893520  -0.1839224   0.1751690), wk =   0.0039062
        k(  236) = (   0.3925954  -0.1777315   0.2510556), wk =   0.0039062
        k(  237) = (   0.3698917  -0.2210677  -0.2801504), wk =   0.0039062
        k(  238) = (   0.3731351  -0.2148768  -0.2042638), wk =   0.0039062
        k(  239) = (   0.3763785  -0.2086859  -0.1283773), wk =   0.0039062
        k(  240) = (   0.3796219  -0.2024950  -0.0524907), wk =   0.0039062
        k(  241) = (   0.3782091  -0.0536363   0.0205793), wk =   0.0039062
        k(  242) = (   0.3814525  -0.0474455   0.0964658), wk =   0.0039062
        k(  243) = (   0.3846958  -0.0412546   0.1723524), wk =   0.0039062
        k(  244) = (   0.3879392  -0.0350637   0.2482390), wk =   0.0039062
        k(  245) = (   0.3652356  -0.0783999  -0.2829670), wk =   0.0039062
        k(  246) = (   0.3684790  -0.0722090  -0.2070804), wk =   0.0039062
        k(  247) = (   0.3717223  -0.0660181  -0.1311939), wk =   0.0039062
        k(  248) = (   0.3749657  -0.0598272  -0.0553073), wk =   0.0039062
        k(  249) = (   0.3735529   0.0890315   0.0177627), wk =   0.0039062
        k(  250) = (   0.3767963   0.0952224   0.0936492), wk =   0.0039062
        k(  251) = (   0.3800397   0.1014132   0.1695358), wk =   0.0039062
        k(  252) = (   0.3832830   0.1076041   0.2454224), wk =   0.0039062
        k(  253) = (   0.3605794   0.0642679  -0.2857836), wk =   0.0039062
        k(  254) = (   0.3638228   0.0704588  -0.2098971), wk =   0.0039062
        k(  255) = (   0.3670662   0.0766497  -0.1340105), wk =   0.0039062
        k(  256) = (   0.3703095   0.0828406  -0.0581239), wk =   0.0039062
        k(  257) = (  -0.4918623  -0.3089324  -0.0199281), wk =   0.0039062
        k(  258) = (  -0.4886190  -0.3027415   0.0559585), wk =   0.0039062
        k(  259) = (  -0.4853756  -0.2965506   0.1318451), wk =   0.0039062
        k(  260) = (  -0.4821322  -0.2903597   0.2077316), wk =   0.0039062
        k(  261) = (  -0.5048358  -0.3336959  -0.3234744), wk =   0.0039062
        k(  262) = (  -0.5015925  -0.3275050  -0.2475878), wk =   0.0039062
        k(  263) = (  -0.4983491  -0.3213141  -0.1717012), wk =   0.0039062
        k(  264) = (  -0.4951057  -0.3151233  -0.0958146), wk =   0.0039062
        k(  265) = (  -0.4965185  -0.1662646  -0.0227447), wk =   0.0039062
        k(  266) = (  -0.4932751  -0.1600737   0.0531419), wk =   0.0039062
        k(  267) = (  -0.4900317  -0.1538828   0.1290285), wk =   0.0039062
        k(  268) = (  -0.4867884  -0.1476919   0.2049150), wk =   0.0039062
        k(  269) = (  -0.5094920  -0.1910281  -0.3262910), wk =   0.0039062
        k(  270) = (  -0.5062486  -0.1848372  -0.2504044), wk =   0.0039062
        k(  271) = (  -0.5030052  -0.1786463  -0.1745178), wk =   0.0039062
        k(  272) = (  -0.4997619  -0.1724554  -0.0986313), wk =   0.0039062
        k(  273) = (  -0.5011747  -0.0235968  -0.0255613), wk =   0.0039062
        k(  274) = (  -0.4979313  -0.0174059   0.0503253), wk =   0.0039062
        k(  275) = (  -0.4946879  -0.0112150   0.1262119), wk =   0.0039062
        k(  276) = (  -0.4914445  -0.0050241   0.2020984), wk =   0.0039062
        k(  277) = (  -0.5141482  -0.0483603  -0.3291076), wk =   0.0039062
        k(  278) = (  -0.5109048  -0.0421694  -0.2532210), wk =   0.0039062
        k(  279) = (  -0.5076614  -0.0359785  -0.1773344), wk =   0.0039062
        k(  280) = (  -0.5044180  -0.0297876  -0.1014479), wk =   0.0039062
        k(  281) = (  -0.5058308   0.1190711  -0.0283779), wk =   0.0039062
        k(  282) = (  -0.5025875   0.1252619   0.0475087), wk =   0.0039062
        k(  283) = (  -0.4993441   0.1314528   0.1233952), wk =   0.0039062
        k(  284) = (  -0.4961007   0.1376437   0.1992818), wk =   0.0039062
        k(  285) = (  -0.5188043   0.0943075  -0.3319242), wk =   0.0039062
        k(  286) = (  -0.5155609   0.1004984  -0.2560376), wk =   0.0039062
        k(  287) = (  -0.5123176   0.1066893  -0.1801511), wk =   0.0039062
        k(  288) = (  -0.5090742   0.1128802  -0.1042645), wk =   0.0039062
        k(  289) = (  -0.4732377  -0.8796036  -0.0086616), wk =   0.0039062
        k(  290) = (  -0.4699943  -0.8734128   0.0672250), wk =   0.0039062
        k(  291) = (  -0.4667509  -0.8672219   0.1431115), wk =   0.0039062
        k(  292) = (  -0.4635075  -0.8610310   0.2189981), wk =   0.0039062
        k(  293) = (  -0.4862112  -0.9043672  -0.3122079), wk =   0.0039062
        k(  294) = (  -0.4829678  -0.8981763  -0.2363213), wk =   0.0039062
        k(  295) = (  -0.4797244  -0.8919854  -0.1604348), wk =   0.0039062
        k(  296) = (  -0.4764810  -0.8857945  -0.0845482), wk =   0.0039062
        k(  297) = (  -0.4778938  -0.7369358  -0.0114782), wk =   0.0039062
        k(  298) = (  -0.4746505  -0.7307449   0.0644083), wk =   0.0039062
        k(  299) = (  -0.4714071  -0.7245541   0.1402949), wk =   0.0039062
        k(  300) = (  -0.4681637  -0.7183632   0.2161815), wk =   0.0039062
        k(  301) = (  -0.4908673  -0.7616994  -0.3150245), wk =   0.0039062
        k(  302) = (  -0.4876240  -0.7555085  -0.2391380), wk =   0.0039062
        k(  303) = (  -0.4843806  -0.7493176  -0.1632514), wk =   0.0039062
        k(  304) = (  -0.4811372  -0.7431267  -0.0873648), wk =   0.0039062
        k(  305) = (  -0.4825500  -0.5942680  -0.0142948), wk =   0.0039062
        k(  306) = (  -0.4793066  -0.5880771   0.0615917), wk =   0.0039062
        k(  307) = (  -0.4760632  -0.5818862   0.1374783), wk =   0.0039062
        k(  308) = (  -0.4728199  -0.5756954   0.2133649), wk =   0.0039062
        k(  309) = (  -0.4955235  -0.6190315  -0.3178411), wk =   0.0039062
        k(  310) = (  -0.4922801  -0.6128407  -0.2419546), wk =   0.0039062
        k(  311) = (  -0.4890367  -0.6066498  -0.1660680), wk =   0.0039062
        k(  312) = (  -0.4857934  -0.6004589  -0.0901814), wk =   0.0039062
        k(  313) = (  -0.4872062  -0.4516002  -0.0171115), wk =   0.0039062
        k(  314) = (  -0.4839628  -0.4454093   0.0587751), wk =   0.0039062
        k(  315) = (  -0.4807194  -0.4392184   0.1346617), wk =   0.0039062
        k(  316) = (  -0.4774760  -0.4330275   0.2105483), wk =   0.0039062
        k(  317) = (  -0.5001797  -0.4763637  -0.3206578), wk =   0.0039062
        k(  318) = (  -0.4969363  -0.4701728  -0.2447712), wk =   0.0039062
        k(  319) = (  -0.4936929  -0.4639820  -0.1688846), wk =   0.0039062
        k(  320) = (  -0.4904495  -0.4577911  -0.0929980), wk =   0.0039062
        k(  321) = (  -0.3688967  -0.2316993  -0.0149461), wk =   0.0039062
        k(  322) = (  -0.3656534  -0.2255084   0.0609405), wk =   0.0039062
        k(  323) = (  -0.3624100  -0.2193175   0.1368271), wk =   0.0039062
        k(  324) = (  -0.3591666  -0.2131266   0.2127137), wk =   0.0039062
        k(  325) = (  -0.3818702  -0.2564628  -0.3184923), wk =   0.0039062
        k(  326) = (  -0.3786269  -0.2502719  -0.2426058), wk =   0.0039062
        k(  327) = (  -0.3753835  -0.2440811  -0.1667192), wk =   0.0039062
        k(  328) = (  -0.3721401  -0.2378902  -0.0908326), wk =   0.0039062
        k(  329) = (  -0.3735529  -0.0890315  -0.0177627), wk =   0.0039062
        k(  330) = (  -0.3703095  -0.0828406   0.0581239), wk =   0.0039062
        k(  331) = (  -0.3670662  -0.0766497   0.1340105), wk =   0.0039062
        k(  332) = (  -0.3638228  -0.0704588   0.2098971), wk =   0.0039062
        k(  333) = (  -0.3865264  -0.1137950  -0.3213090), wk =   0.0039062
        k(  334) = (  -0.3832830  -0.1076041  -0.2454224), wk =   0.0039062
        k(  335) = (  -0.3800397  -0.1014132  -0.1695358), wk =   0.0039062
        k(  336) = (  -0.3767963  -0.0952224  -0.0936492), wk =   0.0039062
        k(  337) = (  -0.3782091   0.0536363  -0.0205793), wk =   0.0039062
        k(  338) = (  -0.3749657   0.0598272   0.0553073), wk =   0.0039062
        k(  339) = (  -0.3717223   0.0660181   0.1311939), wk =   0.0039062
        k(  340) = (  -0.3684790   0.0722090   0.2070804), wk =   0.0039062
        k(  341) = (  -0.3911826   0.0288728  -0.3241256), wk =   0.0039062
        k(  342) = (  -0.3879392   0.0350637  -0.2482390), wk =   0.0039062
        k(  343) = (  -0.3846958   0.0412546  -0.1723524), wk =   0.0039062
        k(  344) = (  -0.3814525   0.0474455  -0.0964658), wk =   0.0039062
        k(  345) = (  -0.3828652   0.1963042  -0.0233959), wk =   0.0039062
        k(  346) = (  -0.3796219   0.2024950   0.0524907), wk =   0.0039062
        k(  347) = (  -0.3763785   0.2086859   0.1283773), wk =   0.0039062
        k(  348) = (  -0.3731351   0.2148768   0.2042638), wk =   0.0039062
        k(  349) = (  -0.3958387   0.1715406  -0.3269422), wk =   0.0039062
        k(  350) = (  -0.3925954   0.1777315  -0.2510556), wk =   0.0039062
        k(  351) = (  -0.3893520   0.1839224  -0.1751690), wk =   0.0039062
        k(  352) = (  -0.3861086   0.1901133  -0.0992825), wk =   0.0039062
        k(  353) = (  -0.3502721  -0.8023705  -0.0036796), wk =   0.0039062
        k(  354) = (  -0.3470287  -0.7961797   0.0722070), wk =   0.0039062
        k(  355) = (  -0.3437853  -0.7899888   0.1480935), wk =   0.0039062
        k(  356) = (  -0.3405420  -0.7837979   0.2239801), wk =   0.0039062
        k(  357) = (  -0.3632456  -0.8271341  -0.3072259), wk =   0.0039062
        k(  358) = (  -0.3600022  -0.8209432  -0.2313393), wk =   0.0039062
        k(  359) = (  -0.3567588  -0.8147523  -0.1554528), wk =   0.0039062
        k(  360) = (  -0.3535155  -0.8085614  -0.0795662), wk =   0.0039062
        k(  361) = (  -0.3549283  -0.6597027  -0.0064962), wk =   0.0039062
        k(  362) = (  -0.3516849  -0.6535118   0.0693904), wk =   0.0039062
        k(  363) = (  -0.3484415  -0.6473210   0.1452769), wk =   0.0039062
        k(  364) = (  -0.3451981  -0.6411301   0.2211635), wk =   0.0039062
        k(  365) = (  -0.3679017  -0.6844663  -0.3100425), wk =   0.0039062
        k(  366) = (  -0.3646584  -0.6782754  -0.2341559), wk =   0.0039062
        k(  367) = (  -0.3614150  -0.6720845  -0.1582694), wk =   0.0039062
        k(  368) = (  -0.3581716  -0.6658936  -0.0823828), wk =   0.0039062
        k(  369) = (  -0.3595844  -0.5170349  -0.0093128), wk =   0.0039062
        k(  370) = (  -0.3563410  -0.5108440   0.0665737), wk =   0.0039062
        k(  371) = (  -0.3530977  -0.5046531   0.1424603), wk =   0.0039062
        k(  372) = (  -0.3498543  -0.4984623   0.2183469), wk =   0.0039062
        k(  373) = (  -0.3725579  -0.5417984  -0.3128591), wk =   0.0039062
        k(  374) = (  -0.3693145  -0.5356076  -0.2369725), wk =   0.0039062
        k(  375) = (  -0.3660712  -0.5294167  -0.1610860), wk =   0.0039062
        k(  376) = (  -0.3628278  -0.5232258  -0.0851994), wk =   0.0039062
        k(  377) = (  -0.3642406  -0.3743671  -0.0121294), wk =   0.0039062
        k(  378) = (  -0.3609972  -0.3681762   0.0637571), wk =   0.0039062
        k(  379) = (  -0.3577538  -0.3619853   0.1396437), wk =   0.0039062
        k(  380) = (  -0.3545105  -0.3557944   0.2155303), wk =   0.0039062
        k(  381) = (  -0.3772141  -0.3991306  -0.3156757), wk =   0.0039062
        k(  382) = (  -0.3739707  -0.3929397  -0.2397892), wk =   0.0039062
        k(  383) = (  -0.3707273  -0.3867489  -0.1639026), wk =   0.0039062
        k(  384) = (  -0.3674840  -0.3805580  -0.0880160), wk =   0.0039062
        k(  385) = (  -0.2459312  -0.1544662  -0.0099640), wk =   0.0039062
        k(  386) = (  -0.2426878  -0.1482753   0.0659225), wk =   0.0039062
        k(  387) = (  -0.2394444  -0.1420844   0.1418091), wk =   0.0039062
        k(  388) = (  -0.2362010  -0.1358935   0.2176957), wk =   0.0039062
        k(  389) = (  -0.2589047  -0.1792297  -0.3135103), wk =   0.0039062
        k(  390) = (  -0.2556613  -0.1730388  -0.2376238), wk =   0.0039062
        k(  391) = (  -0.2524179  -0.1668480  -0.1617372), wk =   0.0039062
        k(  392) = (  -0.2491745  -0.1606571  -0.0858506), wk =   0.0039062
        k(  393) = (  -0.2505873  -0.0117984  -0.0127806), wk =   0.0039062
        k(  394) = (  -0.2473440  -0.0056075   0.0631059), wk =   0.0039062
        k(  395) = (  -0.2441006   0.0005834   0.1389925), wk =   0.0039062
        k(  396) = (  -0.2408572   0.0067743   0.2148791), wk =   0.0039062
        k(  397) = (  -0.2635608  -0.0365619  -0.3163269), wk =   0.0039062
        k(  398) = (  -0.2603175  -0.0303710  -0.2404404), wk =   0.0039062
        k(  399) = (  -0.2570741  -0.0241801  -0.1645538), wk =   0.0039062
        k(  400) = (  -0.2538307  -0.0179893  -0.0886672), wk =   0.0039062
        k(  401) = (  -0.2552435   0.1308694  -0.0155973), wk =   0.0039062
        k(  402) = (  -0.2520001   0.1370603   0.0602893), wk =   0.0039062
        k(  403) = (  -0.2487567   0.1432512   0.1361759), wk =   0.0039062
        k(  404) = (  -0.2455134   0.1494421   0.2120625), wk =   0.0039062
        k(  405) = (  -0.2682170   0.1061059  -0.3191436), wk =   0.0039062
        k(  406) = (  -0.2649736   0.1122968  -0.2432570), wk =   0.0039062
        k(  407) = (  -0.2617302   0.1184877  -0.1673704), wk =   0.0039062
        k(  408) = (  -0.2584869   0.1246786  -0.0914838), wk =   0.0039062
        k(  409) = (  -0.2598997   0.2735373  -0.0184139), wk =   0.0039062
        k(  410) = (  -0.2566563   0.2797281   0.0574727), wk =   0.0039062
        k(  411) = (  -0.2534129   0.2859190   0.1333593), wk =   0.0039062
        k(  412) = (  -0.2501695   0.2921099   0.2092458), wk =   0.0039062
        k(  413) = (  -0.2728732   0.2487737  -0.3219602), wk =   0.0039062
        k(  414) = (  -0.2696298   0.2549646  -0.2460736), wk =   0.0039062
        k(  415) = (  -0.2663864   0.2611555  -0.1701870), wk =   0.0039062
        k(  416) = (  -0.2631430   0.2673464  -0.0943004), wk =   0.0039062
        k(  417) = (  -0.2273065  -0.7251374   0.0013024), wk =   0.0039062
        k(  418) = (  -0.2240631  -0.7189466   0.0771890), wk =   0.0039062
        k(  419) = (  -0.2208198  -0.7127557   0.1530756), wk =   0.0039062
        k(  420) = (  -0.2175764  -0.7065648   0.2289621), wk =   0.0039062
        k(  421) = (  -0.2402800  -0.7499010  -0.3022439), wk =   0.0039062
        k(  422) = (  -0.2370366  -0.7437101  -0.2263573), wk =   0.0039062
        k(  423) = (  -0.2337933  -0.7375192  -0.1504707), wk =   0.0039062
        k(  424) = (  -0.2305499  -0.7313283  -0.0745842), wk =   0.0039062
        k(  425) = (  -0.2319627  -0.5824696  -0.0015142), wk =   0.0039062
        k(  426) = (  -0.2287193  -0.5762787   0.0743724), wk =   0.0039062
        k(  427) = (  -0.2254759  -0.5700879   0.1502589), wk =   0.0039062
        k(  428) = (  -0.2222325  -0.5638970   0.2261455), wk =   0.0039062
        k(  429) = (  -0.2449362  -0.6072332  -0.3050605), wk =   0.0039062
        k(  430) = (  -0.2416928  -0.6010423  -0.2291739), wk =   0.0039062
        k(  431) = (  -0.2384494  -0.5948514  -0.1532873), wk =   0.0039062
        k(  432) = (  -0.2352060  -0.5886605  -0.0774008), wk =   0.0039062
        k(  433) = (  -0.2366188  -0.4398018  -0.0043308), wk =   0.0039062
        k(  434) = (  -0.2333755  -0.4336109   0.0715558), wk =   0.0039062
        k(  435) = (  -0.2301321  -0.4274201   0.1474423), wk =   0.0039062
        k(  436) = (  -0.2268887  -0.4212292   0.2233289), wk =   0.0039062
        k(  437) = (  -0.2495923  -0.4645653  -0.3078771), wk =   0.0039062
        k(  438) = (  -0.2463490  -0.4583745  -0.2319905), wk =   0.0039062
        k(  439) = (  -0.2431056  -0.4521836  -0.1561040), wk =   0.0039062
        k(  440) = (  -0.2398622  -0.4459927  -0.0802174), wk =   0.0039062
        k(  441) = (  -0.2412750  -0.2971340  -0.0071474), wk =   0.0039062
        k(  442) = (  -0.2380316  -0.2909431   0.0687392), wk =   0.0039062
        k(  443) = (  -0.2347882  -0.2847522   0.1446257), wk =   0.0039062
        k(  444) = (  -0.2315449  -0.2785614   0.2205123), wk =   0.0039062
        k(  445) = (  -0.2542485  -0.3218975  -0.3106937), wk =   0.0039062
        k(  446) = (  -0.2510051  -0.3157067  -0.2348071), wk =   0.0039062
        k(  447) = (  -0.2477617  -0.3095158  -0.1589206), wk =   0.0039062
        k(  448) = (  -0.2445184  -0.3033249  -0.0830340), wk =   0.0039062
        k(  449) = (  -0.1229656  -0.0772331  -0.0049820), wk =   0.0039062
        k(  450) = (  -0.1197222  -0.0710422   0.0709046), wk =   0.0039062
        k(  451) = (  -0.1164788  -0.0648513   0.1467911), wk =   0.0039062
        k(  452) = (  -0.1132355  -0.0586604   0.2226777), wk =   0.0039062
        k(  453) = (  -0.1359391  -0.1019966  -0.3085283), wk =   0.0039062
        k(  454) = (  -0.1326957  -0.0958057  -0.2326417), wk =   0.0039062
        k(  455) = (  -0.1294523  -0.0896149  -0.1567552), wk =   0.0039062
        k(  456) = (  -0.1262090  -0.0834240  -0.0808686), wk =   0.0039062
        k(  457) = (  -0.1276217   0.0654347  -0.0077986), wk =   0.0039062
        k(  458) = (  -0.1243784   0.0716256   0.0680879), wk =   0.0039062
        k(  459) = (  -0.1211350   0.0778165   0.1439745), wk =   0.0039062
        k(  460) = (  -0.1178916   0.0840074   0.2198611), wk =   0.0039062
        k(  461) = (  -0.1405952   0.0406712  -0.3113449), wk =   0.0039062
        k(  462) = (  -0.1373519   0.0468621  -0.2354583), wk =   0.0039062
        k(  463) = (  -0.1341085   0.0530530  -0.1595718), wk =   0.0039062
        k(  464) = (  -0.1308651   0.0592438  -0.0836852), wk =   0.0039062
        k(  465) = (  -0.1322779   0.2081025  -0.0106152), wk =   0.0039062
        k(  466) = (  -0.1290345   0.2142934   0.0652713), wk =   0.0039062
        k(  467) = (  -0.1257912   0.2204843   0.1411579), wk =   0.0039062
        k(  468) = (  -0.1225478   0.2266752   0.2170445), wk =   0.0039062
        k(  469) = (  -0.1452514   0.1833390  -0.3141615), wk =   0.0039062
        k(  470) = (  -0.1420080   0.1895299  -0.2382750), wk =   0.0039062
        k(  471) = (  -0.1387647   0.1957208  -0.1623884), wk =   0.0039062
        k(  472) = (  -0.1355213   0.2019116  -0.0865018), wk =   0.0039062
        k(  473) = (  -0.1369341   0.3507703  -0.0134319), wk =   0.0039062
        k(  474) = (  -0.1336907   0.3569612   0.0624547), wk =   0.0039062
        k(  475) = (  -0.1304473   0.3631521   0.1383413), wk =   0.0039062
        k(  476) = (  -0.1272040   0.3693430   0.2142279), wk =   0.0039062
        k(  477) = (  -0.1499076   0.3260068  -0.3169781), wk =   0.0039062
        k(  478) = (  -0.1466642   0.3321977  -0.2410916), wk =   0.0039062
        k(  479) = (  -0.1434208   0.3383886  -0.1652050), wk =   0.0039062
        k(  480) = (  -0.1401775   0.3445795  -0.0893184), wk =   0.0039062
        k(  481) = (  -0.1043409  -0.6479043   0.0062844), wk =   0.0039062
        k(  482) = (  -0.1010975  -0.6417135   0.0821710), wk =   0.0039062
        k(  483) = (  -0.0978542  -0.6355226   0.1580576), wk =   0.0039062
        k(  484) = (  -0.0946108  -0.6293317   0.2339441), wk =   0.0039062
        k(  485) = (  -0.1173144  -0.6726679  -0.2972619), wk =   0.0039062
        k(  486) = (  -0.1140710  -0.6664770  -0.2213753), wk =   0.0039062
        k(  487) = (  -0.1108277  -0.6602861  -0.1454887), wk =   0.0039062
        k(  488) = (  -0.1075843  -0.6540952  -0.0696021), wk =   0.0039062
        k(  489) = (  -0.1089971  -0.5052365   0.0034678), wk =   0.0039062
        k(  490) = (  -0.1057537  -0.4990457   0.0793544), wk =   0.0039062
        k(  491) = (  -0.1025103  -0.4928548   0.1552410), wk =   0.0039062
        k(  492) = (  -0.0992670  -0.4866639   0.2311275), wk =   0.0039062
        k(  493) = (  -0.1219706  -0.5300001  -0.3000785), wk =   0.0039062
        k(  494) = (  -0.1187272  -0.5238092  -0.2241919), wk =   0.0039062
        k(  495) = (  -0.1154838  -0.5176183  -0.1483053), wk =   0.0039062
        k(  496) = (  -0.1122405  -0.5114274  -0.0724188), wk =   0.0039062
        k(  497) = (  -0.1136533  -0.3625687   0.0006512), wk =   0.0039062
        k(  498) = (  -0.1104099  -0.3563778   0.0765378), wk =   0.0039062
        k(  499) = (  -0.1071665  -0.3501870   0.1524244), wk =   0.0039062
        k(  500) = (  -0.1039231  -0.3439961   0.2283109), wk =   0.0039062
        k(  501) = (  -0.1266268  -0.3873323  -0.3028951), wk =   0.0039062
        k(  502) = (  -0.1233834  -0.3811414  -0.2270085), wk =   0.0039062
        k(  503) = (  -0.1201400  -0.3749505  -0.1511219), wk =   0.0039062
        k(  504) = (  -0.1168966  -0.3687596  -0.0752354), wk =   0.0039062
        k(  505) = (  -0.1183094  -0.2199009  -0.0021654), wk =   0.0039062
        k(  506) = (  -0.1150660  -0.2137100   0.0737212), wk =   0.0039062
        k(  507) = (  -0.1118227  -0.2075191   0.1496077), wk =   0.0039062
        k(  508) = (  -0.1085793  -0.2013283   0.2254943), wk =   0.0039062
        k(  509) = (  -0.1312829  -0.2446644  -0.3057117), wk =   0.0039062
        k(  510) = (  -0.1280395  -0.2384736  -0.2298251), wk =   0.0039062
        k(  511) = (  -0.1247962  -0.2322827  -0.1539386), wk =   0.0039062
        k(  512) = (  -0.1215528  -0.2260918  -0.0780520), wk =   0.0039062

                       cryst. coord.
        k(    1) = (   0.0000000   0.0000000   0.0000000), wk =   0.0039062
        k(    2) = (   0.0000000  -0.0000000   0.1250000), wk =   0.0039062
        k(    3) = (   0.0000000  -0.0000000   0.2500000), wk =   0.0039062
        k(    4) = (   0.0000000  -0.0000000   0.3750000), wk =   0.0039062
        k(    5) = (  -0.0000000   0.0000000  -0.5000000), wk =   0.0039062
        k(    6) = (   0.0000000   0.0000000  -0.3750000), wk =   0.0039062
        k(    7) = (  -0.0000000   0.0000000  -0.2500000), wk =   0.0039062
        k(    8) = (  -0.0000000   0.0000000  -0.1250000), wk =   0.0039062
        k(    9) = (   0.0000000   0.1250000   0.0000000), wk =   0.0039062
        k(   10) = (   0.0000000   0.1250000   0.1250000), wk =   0.0039062
        k(   11) = (   0.0000000   0.1250000   0.2500000), wk =   0.0039062
        k(   12) = (   0.0000000   0.1250000   0.3750000), wk =   0.0039062
        k(   13) = (  -0.0000000   0.1250000  -0.5000000), wk =   0.0039062
        k(   14) = (   0.0000000   0.1250000  -0.3750000), wk =   0.0039062
        k(   15) = (   0.0000000   0.1250000  -0.2500000), wk =   0.0039062
        k(   16) = (   0.0000000   0.1250000  -0.1250000), wk =   0.0039062
        k(   17) = (   0.0000000   0.2500000   0.0000000), wk =   0.0039062
        k(   18) = (   0.0000000   0.2500000   0.1250000), wk =   0.0039062
        k(   19) = (   0.0000000   0.2500000   0.2500000), wk =   0.0039062
        k(   20) = (   0.0000000   0.2500000   0.3750000), wk =   0.0039062
        k(   21) = (   0.0000000   0.2500000  -0.5000000), wk =   0.0039062
        k(   22) = (   0.0000000   0.2500000  -0.3750000), wk =   0.0039062
        k(   23) = (   0.0000000   0.2500000  -0.2500000), wk =   0.0039062
        k(   24) = (   0.0000000   0.2500000  -0.1250000), wk =   0.0039062
        k(   25) = (   0.0000000   0.3750000   0.0000000), wk =   0.0039062
        k(   26) = (   0.0000000   0.3750000   0.1250000), wk =   0.0039062
        k(   27) = (   0.0000000   0.3750000   0.2500000), wk =   0.0039062
        k(   28) = (   0.0000000   0.3750000   0.3750000), wk =   0.0039062
        k(   29) = (  -0.0000000   0.3750000  -0.5000000), wk =   0.0039062
        k(   30) = (   0.0000000   0.3750000  -0.3750000), wk =   0.0039062
        k(   31) = (   0.0000000   0.3750000  -0.2500000), wk =   0.0039062
        k(   32) = (   0.0000000   0.3750000  -0.1250000), wk =   0.0039062
        k(   33) = (  -0.0000000  -0.5000000   0.0000000), wk =   0.0039062
        k(   34) = (   0.0000000  -0.5000000   0.1250000), wk =   0.0039062
        k(   35) = (  -0.0000000  -0.5000000   0.2500000), wk =   0.0039062
        k(   36) = (  -0.0000000  -0.5000000   0.3750000), wk =   0.0039062
        k(   37) = (  -0.0000000  -0.5000000  -0.5000000), wk =   0.0039062
        k(   38) = (  -0.0000000  -0.5000000  -0.3750000), wk =   0.0039062
        k(   39) = (  -0.0000000  -0.5000000  -0.2500000), wk =   0.0039062
        k(   40) = (  -0.0000000  -0.5000000  -0.1250000), wk =   0.0039062
        k(   41) = (  -0.0000000  -0.3750000  -0.0000000), wk =   0.0039062
        k(   42) = (  -0.0000000  -0.3750000   0.1250000), wk =   0.0039062
        k(   43) = (  -0.0000000  -0.3750000   0.2500000), wk =   0.0039062
        k(   44) = (  -0.0000000  -0.3750000   0.3750000), wk =   0.0039062
        k(   45) = (  -0.0000000  -0.3750000  -0.5000000), wk =   0.0039062
        k(   46) = (  -0.0000000  -0.3750000  -0.3750000), wk =   0.0039062
        k(   47) = (  -0.0000000  -0.3750000  -0.2500000), wk =   0.0039062
        k(   48) = (  -0.0000000  -0.3750000  -0.1250000), wk =   0.0039062
        k(   49) = (  -0.0000000  -0.2500000   0.0000000), wk =   0.0039062
        k(   50) = (  -0.0000000  -0.2500000   0.1250000), wk =   0.0039062
        k(   51) = (  -0.0000000  -0.2500000   0.2500000), wk =   0.0039062
        k(   52) = (  -0.0000000  -0.2500000   0.3750000), wk =   0.0039062
        k(   53) = (   0.0000000  -0.2500000  -0.5000000), wk =   0.0039062
        k(   54) = (  -0.0000000  -0.2500000  -0.3750000), wk =   0.0039062
        k(   55) = (  -0.0000000  -0.2500000  -0.2500000), wk =   0.0039062
        k(   56) = (  -0.0000000  -0.2500000  -0.1250000), wk =   0.0039062
        k(   57) = (  -0.0000000  -0.1250000   0.0000000), wk =   0.0039062
        k(   58) = (  -0.0000000  -0.1250000   0.1250000), wk =   0.0039062
        k(   59) = (  -0.0000000  -0.1250000   0.2500000), wk =   0.0039062
        k(   60) = (   0.0000000  -0.1250000   0.3750000), wk =   0.0039062
        k(   61) = (   0.0000000  -0.1250000  -0.5000000), wk =   0.0039062
        k(   62) = (   0.0000000  -0.1250000  -0.3750000), wk =   0.0039062
        k(   63) = (   0.0000000  -0.1250000  -0.2500000), wk =   0.0039062
        k(   64) = (  -0.0000000  -0.1250000  -0.1250000), wk =   0.0039062
        k(   65) = (   0.1250000   0.0000000   0.0000000), wk =   0.0039062
        k(   66) = (   0.1250000   0.0000000   0.1250000), wk =   0.0039062
        k(   67) = (   0.1250000   0.0000000   0.2500000), wk =   0.0039062
        k(   68) = (   0.1250000   0.0000000   0.3750000), wk =   0.0039062
        k(   69) = (   0.1250000   0.0000000  -0.5000000), wk =   0.0039062
        k(   70) = (   0.1250000   0.0000000  -0.3750000), wk =   0.0039062
        k(   71) = (   0.1250000   0.0000000  -0.2500000), wk =   0.0039062
        k(   72) = (   0.1250000   0.0000000  -0.1250000), wk =   0.0039062
        k(   73) = (   0.1250000   0.1250000   0.0000000), wk =   0.0039062
        k(   74) = (   0.1250000   0.1250000   0.1250000), wk =   0.0039062
        k(   75) = (   0.1250000   0.1250000   0.2500000), wk =   0.0039062
        k(   76) = (   0.1250000   0.1250000   0.3750000), wk =   0.0039062
        k(   77) = (   0.1250000   0.1250000  -0.5000000), wk =   0.0039062
        k(   78) = (   0.1250000   0.1250000  -0.3750000), wk =   0.0039062
        k(   79) = (   0.1250000   0.1250000  -0.2500000), wk =   0.0039062
        k(   80) = (   0.1250000   0.1250000  -0.1250000), wk =   0.0039062
        k(   81) = (   0.1250000   0.2500000   0.0000000), wk =   0.0039062
        k(   82) = (   0.1250000   0.2500000   0.1250000), wk =   0.0039062
        k(   83) = (   0.1250000   0.2500000   0.2500000), wk =   0.0039062
        k(   84) = (   0.1250000   0.2500000   0.3750000), wk =   0.0039062
        k(   85) = (   0.1250000   0.2500000  -0.5000000), wk =   0.0039062
        k(   86) = (   0.1250000   0.2500000  -0.3750000), wk =   0.0039062
        k(   87) = (   0.1250000   0.2500000  -0.2500000), wk =   0.0039062
        k(   88) = (   0.1250000   0.2500000  -0.1250000), wk =   0.0039062
        k(   89) = (   0.1250000   0.3750000   0.0000000), wk =   0.0039062
        k(   90) = (   0.1250000   0.3750000   0.1250000), wk =   0.0039062
        k(   91) = (   0.1250000   0.3750000   0.2500000), wk =   0.0039062
        k(   92) = (   0.1250000   0.3750000   0.3750000), wk =   0.0039062
        k(   93) = (   0.1250000   0.3750000  -0.5000000), wk =   0.0039062
        k(   94) = (   0.1250000   0.3750000  -0.3750000), wk =   0.0039062
        k(   95) = (   0.1250000   0.3750000  -0.2500000), wk =   0.0039062
        k(   96) = (   0.1250000   0.3750000  -0.1250000), wk =   0.0039062
        k(   97) = (   0.1250000  -0.5000000  -0.0000000), wk =   0.0039062
        k(   98) = (   0.1250000  -0.5000000   0.1250000), wk =   0.0039062
        k(   99) = (   0.1250000  -0.5000000   0.2500000), wk =   0.0039062
        k(  100) = (   0.1250000  -0.5000000   0.3750000), wk =   0.0039062
        k(  101) = (   0.1250000  -0.5000000  -0.5000000), wk =   0.0039062
        k(  102) = (   0.1250000  -0.5000000  -0.3750000), wk =   0.0039062
        k(  103) = (   0.1250000  -0.5000000  -0.2500000), wk =   0.0039062
        k(  104) = (   0.1250000  -0.5000000  -0.1250000), wk =   0.0039062
        k(  105) = (   0.1250000  -0.3750000  -0.0000000), wk =   0.0039062
        k(  106) = (   0.1250000  -0.3750000   0.1250000), wk =   0.0039062
        k(  107) = (   0.1250000  -0.3750000   0.2500000), wk =   0.0039062
        k(  108) = (   0.1250000  -0.3750000   0.3750000), wk =   0.0039062
        k(  109) = (   0.1250000  -0.3750000  -0.5000000), wk =   0.0039062
        k(  110) = (   0.1250000  -0.3750000  -0.3750000), wk =   0.0039062
        k(  111) = (   0.1250000  -0.3750000  -0.2500000), wk =   0.0039062
        k(  112) = (   0.1250000  -0.3750000  -0.1250000), wk =   0.0039062
        k(  113) = (   0.1250000  -0.2500000  -0.0000000), wk =   0.0039062
        k(  114) = (   0.1250000  -0.2500000   0.1250000), wk =   0.0039062
        k(  115) = (   0.1250000  -0.2500000   0.2500000), wk =   0.0039062
        k(  116) = (   0.1250000  -0.2500000   0.3750000), wk =   0.0039062
        k(  117) = (   0.1250000  -0.2500000  -0.5000000), wk =   0.0039062
        k(  118) = (   0.1250000  -0.2500000  -0.3750000), wk =   0.0039062
        k(  119) = (   0.1250000  -0.2500000  -0.2500000), wk =   0.0039062
        k(  120) = (   0.1250000  -0.2500000  -0.1250000), wk =   0.0039062
        k(  121) = (   0.1250000  -0.1250000  -0.0000000), wk =   0.0039062
        k(  122) = (   0.1250000  -0.1250000   0.1250000), wk =   0.0039062
        k(  123) = (   0.1250000  -0.1250000   0.2500000), wk =   0.0039062
        k(  124) = (   0.1250000  -0.1250000   0.3750000), wk =   0.0039062
        k(  125) = (   0.1250000  -0.1250000  -0.5000000), wk =   0.0039062
        k(  126) = (   0.1250000  -0.1250000  -0.3750000), wk =   0.0039062
        k(  127) = (   0.1250000  -0.1250000  -0.2500000), wk =   0.0039062
        k(  128) = (   0.1250000  -0.1250000  -0.1250000), wk =   0.0039062
        k(  129) = (   0.2500000   0.0000000   0.0000000), wk =   0.0039062
        k(  130) = (   0.2500000   0.0000000   0.1250000), wk =   0.0039062
        k(  131) = (   0.2500000   0.0000000   0.2500000), wk =   0.0039062
        k(  132) = (   0.2500000   0.0000000   0.3750000), wk =   0.0039062
        k(  133) = (   0.2500000   0.0000000  -0.5000000), wk =   0.0039062
        k(  134) = (   0.2500000   0.0000000  -0.3750000), wk =   0.0039062
        k(  135) = (   0.2500000   0.0000000  -0.2500000), wk =   0.0039062
        k(  136) = (   0.2500000  -0.0000000  -0.1250000), wk =   0.0039062
        k(  137) = (   0.2500000   0.1250000   0.0000000), wk =   0.0039062
        k(  138) = (   0.2500000   0.1250000   0.1250000), wk =   0.0039062
        k(  139) = (   0.2500000   0.1250000   0.2500000), wk =   0.0039062
        k(  140) = (   0.2500000   0.1250000   0.3750000), wk =   0.0039062
        k(  141) = (   0.2500000   0.1250000  -0.5000000), wk =   0.0039062
        k(  142) = (   0.2500000   0.1250000  -0.3750000), wk =   0.0039062
        k(  143) = (   0.2500000   0.1250000  -0.2500000), wk =   0.0039062
        k(  144) = (   0.2500000   0.1250000  -0.1250000), wk =   0.0039062
        k(  145) = (   0.2500000   0.2500000   0.0000000), wk =   0.0039062
        k(  146) = (   0.2500000   0.2500000   0.1250000), wk =   0.0039062
        k(  147) = (   0.2500000   0.2500000   0.2500000), wk =   0.0039062
        k(  148) = (   0.2500000   0.2500000   0.3750000), wk =   0.0039062
        k(  149) = (   0.2500000   0.2500000  -0.5000000), wk =   0.0039062
        k(  150) = (   0.2500000   0.2500000  -0.3750000), wk =   0.0039062
        k(  151) = (   0.2500000   0.2500000  -0.2500000), wk =   0.0039062
        k(  152) = (   0.2500000   0.2500000  -0.1250000), wk =   0.0039062
        k(  153) = (   0.2500000   0.3750000   0.0000000), wk =   0.0039062
        k(  154) = (   0.2500000   0.3750000   0.1250000), wk =   0.0039062
        k(  155) = (   0.2500000   0.3750000   0.2500000), wk =   0.0039062
        k(  156) = (   0.2500000   0.3750000   0.3750000), wk =   0.0039062
        k(  157) = (   0.2500000   0.3750000  -0.5000000), wk =   0.0039062
        k(  158) = (   0.2500000   0.3750000  -0.3750000), wk =   0.0039062
        k(  159) = (   0.2500000   0.3750000  -0.2500000), wk =   0.0039062
        k(  160) = (   0.2500000   0.3750000  -0.1250000), wk =   0.0039062
        k(  161) = (   0.2500000  -0.5000000  -0.0000000), wk =   0.0039062
        k(  162) = (   0.2500000  -0.5000000   0.1250000), wk =   0.0039062
        k(  163) = (   0.2500000  -0.5000000   0.2500000), wk =   0.0039062
        k(  164) = (   0.2500000  -0.5000000   0.3750000), wk =   0.0039062
        k(  165) = (   0.2500000  -0.5000000  -0.5000000), wk =   0.0039062
        k(  166) = (   0.2500000  -0.5000000  -0.3750000), wk =   0.0039062
        k(  167) = (   0.2500000  -0.5000000  -0.2500000), wk =   0.0039062
        k(  168) = (   0.2500000  -0.5000000  -0.1250000), wk =   0.0039062
        k(  169) = (   0.2500000  -0.3750000  -0.0000000), wk =   0.0039062
        k(  170) = (   0.2500000  -0.3750000   0.1250000), wk =   0.0039062
        k(  171) = (   0.2500000  -0.3750000   0.2500000), wk =   0.0039062
        k(  172) = (   0.2500000  -0.3750000   0.3750000), wk =   0.0039062
        k(  173) = (   0.2500000  -0.3750000  -0.5000000), wk =   0.0039062
        k(  174) = (   0.2500000  -0.3750000  -0.3750000), wk =   0.0039062
        k(  175) = (   0.2500000  -0.3750000  -0.2500000), wk =   0.0039062
        k(  176) = (   0.2500000  -0.3750000  -0.1250000), wk =   0.0039062
        k(  177) = (   0.2500000  -0.2500000  -0.0000000), wk =   0.0039062
        k(  178) = (   0.2500000  -0.2500000   0.1250000), wk =   0.0039062
        k(  179) = (   0.2500000  -0.2500000   0.2500000), wk =   0.0039062
        k(  180) = (   0.2500000  -0.2500000   0.3750000), wk =   0.0039062
        k(  181) = (   0.2500000  -0.2500000  -0.5000000), wk =   0.0039062
        k(  182) = (   0.2500000  -0.2500000  -0.3750000), wk =   0.0039062
        k(  183) = (   0.2500000  -0.2500000  -0.2500000), wk =   0.0039062
        k(  184) = (   0.2500000  -0.2500000  -0.1250000), wk =   0.0039062
        k(  185) = (   0.2500000  -0.1250000   0.0000000), wk =   0.0039062
        k(  186) = (   0.2500000  -0.1250000   0.1250000), wk =   0.0039062
        k(  187) = (   0.2500000  -0.1250000   0.2500000), wk =   0.0039062
        k(  188) = (   0.2500000  -0.1250000   0.3750000), wk =   0.0039062
        k(  189) = (   0.2500000  -0.1250000  -0.5000000), wk =   0.0039062
        k(  190) = (   0.2500000  -0.1250000  -0.3750000), wk =   0.0039062
        k(  191) = (   0.2500000  -0.1250000  -0.2500000), wk =   0.0039062
        k(  192) = (   0.2500000  -0.1250000  -0.1250000), wk =   0.0039062
        k(  193) = (   0.3750000   0.0000000   0.0000000), wk =   0.0039062
        k(  194) = (   0.3750000   0.0000000   0.1250000), wk =   0.0039062
        k(  195) = (   0.3750000   0.0000000   0.2500000), wk =   0.0039062
        k(  196) = (   0.3750000   0.0000000   0.3750000), wk =   0.0039062
        k(  197) = (   0.3750000   0.0000000  -0.5000000), wk =   0.0039062
        k(  198) = (   0.3750000   0.0000000  -0.3750000), wk =   0.0039062
        k(  199) = (   0.3750000  -0.0000000  -0.2500000), wk =   0.0039062
        k(  200) = (   0.3750000  -0.0000000  -0.1250000), wk =   0.0039062
        k(  201) = (   0.3750000   0.1250000   0.0000000), wk =   0.0039062
        k(  202) = (   0.3750000   0.1250000   0.1250000), wk =   0.0039062
        k(  203) = (   0.3750000   0.1250000   0.2500000), wk =   0.0039062
        k(  204) = (   0.3750000   0.1250000   0.3750000), wk =   0.0039062
        k(  205) = (   0.3750000   0.1250000  -0.5000000), wk =   0.0039062
        k(  206) = (   0.3750000   0.1250000  -0.3750000), wk =   0.0039062
        k(  207) = (   0.3750000   0.1250000  -0.2500000), wk =   0.0039062
        k(  208) = (   0.3750000   0.1250000  -0.1250000), wk =   0.0039062
        k(  209) = (   0.3750000   0.2500000   0.0000000), wk =   0.0039062
        k(  210) = (   0.3750000   0.2500000   0.1250000), wk =   0.0039062
        k(  211) = (   0.3750000   0.2500000   0.2500000), wk =   0.0039062
        k(  212) = (   0.3750000   0.2500000   0.3750000), wk =   0.0039062
        k(  213) = (   0.3750000   0.2500000  -0.5000000), wk =   0.0039062
        k(  214) = (   0.3750000   0.2500000  -0.3750000), wk =   0.0039062
        k(  215) = (   0.3750000   0.2500000  -0.2500000), wk =   0.0039062
        k(  216) = (   0.3750000   0.2500000  -0.1250000), wk =   0.0039062
        k(  217) = (   0.3750000   0.3750000  -0.0000000), wk =   0.0039062
        k(  218) = (   0.3750000   0.3750000   0.1250000), wk =   0.0039062
        k(  219) = (   0.3750000   0.3750000   0.2500000), wk =   0.0039062
        k(  220) = (   0.3750000   0.3750000   0.3750000), wk =   0.0039062
        k(  221) = (   0.3750000   0.3750000  -0.5000000), wk =   0.0039062
        k(  222) = (   0.3750000   0.3750000  -0.3750000), wk =   0.0039062
        k(  223) = (   0.3750000   0.3750000  -0.2500000), wk =   0.0039062
        k(  224) = (   0.3750000   0.3750000  -0.1250000), wk =   0.0039062
        k(  225) = (   0.3750000  -0.5000000  -0.0000000), wk =   0.0039062
        k(  226) = (   0.3750000  -0.5000000   0.1250000), wk =   0.0039062
        k(  227) = (   0.3750000  -0.5000000   0.2500000), wk =   0.0039062
        k(  228) = (   0.3750000  -0.5000000   0.3750000), wk =   0.0039062
        k(  229) = (   0.3750000  -0.5000000  -0.5000000), wk =   0.0039062
        k(  230) = (   0.3750000  -0.5000000  -0.3750000), wk =   0.0039062
        k(  231) = (   0.3750000  -0.5000000  -0.2500000), wk =   0.0039062
        k(  232) = (   0.3750000  -0.5000000  -0.1250000), wk =   0.0039062
        k(  233) = (   0.3750000  -0.3750000   0.0000000), wk =   0.0039062
        k(  234) = (   0.3750000  -0.3750000   0.1250000), wk =   0.0039062
        k(  235) = (   0.3750000  -0.3750000   0.2500000), wk =   0.0039062
        k(  236) = (   0.3750000  -0.3750000   0.3750000), wk =   0.0039062
        k(  237) = (   0.3750000  -0.3750000  -0.5000000), wk =   0.0039062
        k(  238) = (   0.3750000  -0.3750000  -0.3750000), wk =   0.0039062
        k(  239) = (   0.3750000  -0.3750000  -0.2500000), wk =   0.0039062
        k(  240) = (   0.3750000  -0.3750000  -0.1250000), wk =   0.0039062
        k(  241) = (   0.3750000  -0.2500000   0.0000000), wk =   0.0039062
        k(  242) = (   0.3750000  -0.2500000   0.1250000), wk =   0.0039062
        k(  243) = (   0.3750000  -0.2500000   0.2500000), wk =   0.0039062
        k(  244) = (   0.3750000  -0.2500000   0.3750000), wk =   0.0039062
        k(  245) = (   0.3750000  -0.2500000  -0.5000000), wk =   0.0039062
        k(  246) = (   0.3750000  -0.2500000  -0.3750000), wk =   0.0039062
        k(  247) = (   0.3750000  -0.2500000  -0.2500000), wk =   0.0039062
        k(  248) = (   0.3750000  -0.2500000  -0.1250000), wk =   0.0039062
        k(  249) = (   0.3750000  -0.1250000   0.0000000), wk =   0.0039062
        k(  250) = (   0.3750000  -0.1250000   0.1250000), wk =   0.0039062
        k(  251) = (   0.3750000  -0.1250000   0.2500000), wk =   0.0039062
        k(  252) = (   0.3750000  -0.1250000   0.3750000), wk =   0.0039062
        k(  253) = (   0.3750000  -0.1250000  -0.5000000), wk =   0.0039062
        k(  254) = (   0.3750000  -0.1250000  -0.3750000), wk =   0.0039062
        k(  255) = (   0.3750000  -0.1250000  -0.2500000), wk =   0.0039062
        k(  256) = (   0.3750000  -0.1250000  -0.1250000), wk =   0.0039062
        k(  257) = (  -0.5000000  -0.0000000   0.0000000), wk =   0.0039062
        k(  258) = (  -0.5000000  -0.0000000   0.1250000), wk =   0.0039062
        k(  259) = (  -0.5000000   0.0000000   0.2500000), wk =   0.0039062
        k(  260) = (  -0.5000000  -0.0000000   0.3750000), wk =   0.0039062
        k(  261) = (  -0.5000000  -0.0000000  -0.5000000), wk =   0.0039062
        k(  262) = (  -0.5000000  -0.0000000  -0.3750000), wk =   0.0039062
        k(  263) = (  -0.5000000  -0.0000000  -0.2500000), wk =   0.0039062
        k(  264) = (  -0.5000000  -0.0000000  -0.1250000), wk =   0.0039062
        k(  265) = (  -0.5000000   0.1250000   0.0000000), wk =   0.0039062
        k(  266) = (  -0.5000000   0.1250000   0.1250000), wk =   0.0039062
        k(  267) = (  -0.5000000   0.1250000   0.2500000), wk =   0.0039062
        k(  268) = (  -0.5000000   0.1250000   0.3750000), wk =   0.0039062
        k(  269) = (  -0.5000000   0.1250000  -0.5000000), wk =   0.0039062
        k(  270) = (  -0.5000000   0.1250000  -0.3750000), wk =   0.0039062
        k(  271) = (  -0.5000000   0.1250000  -0.2500000), wk =   0.0039062
        k(  272) = (  -0.5000000   0.1250000  -0.1250000), wk =   0.0039062
        k(  273) = (  -0.5000000   0.2500000   0.0000000), wk =   0.0039062
        k(  274) = (  -0.5000000   0.2500000   0.1250000), wk =   0.0039062
        k(  275) = (  -0.5000000   0.2500000   0.2500000), wk =   0.0039062
        k(  276) = (  -0.5000000   0.2500000   0.3750000), wk =   0.0039062
        k(  277) = (  -0.5000000   0.2500000  -0.5000000), wk =   0.0039062
        k(  278) = (  -0.5000000   0.2500000  -0.3750000), wk =   0.0039062
        k(  279) = (  -0.5000000   0.2500000  -0.2500000), wk =   0.0039062
        k(  280) = (  -0.5000000   0.2500000  -0.1250000), wk =   0.0039062
        k(  281) = (  -0.5000000   0.3750000   0.0000000), wk =   0.0039062
        k(  282) = (  -0.5000000   0.3750000   0.1250000), wk =   0.0039062
        k(  283) = (  -0.5000000   0.3750000   0.2500000), wk =   0.0039062
        k(  284) = (  -0.5000000   0.3750000   0.3750000), wk =   0.0039062
        k(  285) = (  -0.5000000   0.3750000  -0.5000000), wk =   0.0039062
        k(  286) = (  -0.5000000   0.3750000  -0.3750000), wk =   0.0039062
        k(  287) = (  -0.5000000   0.3750000  -0.2500000), wk =   0.0039062
        k(  288) = (  -0.5000000   0.3750000  -0.1250000), wk =   0.0039062
        k(  289) = (  -0.5000000  -0.5000000  -0.0000000), wk =   0.0039062
        k(  290) = (  -0.5000000  -0.5000000   0.1250000), wk =   0.0039062
        k(  291) = (  -0.5000000  -0.5000000   0.2500000), wk =   0.0039062
        k(  292) = (  -0.5000000  -0.5000000   0.3750000), wk =   0.0039062
        k(  293) = (  -0.5000000  -0.5000000  -0.5000000), wk =   0.0039062
        k(  294) = (  -0.5000000  -0.5000000  -0.3750000), wk =   0.0039062
        k(  295) = (  -0.5000000  -0.5000000  -0.2500000), wk =   0.0039062
        k(  296) = (  -0.5000000  -0.5000000  -0.1250000), wk =   0.0039062
        k(  297) = (  -0.5000000  -0.3750000   0.0000000), wk =   0.0039062
        k(  298) = (  -0.5000000  -0.3750000   0.1250000), wk =   0.0039062
        k(  299) = (  -0.5000000  -0.3750000   0.2500000), wk =   0.0039062
        k(  300) = (  -0.5000000  -0.3750000   0.3750000), wk =   0.0039062
        k(  301) = (  -0.5000000  -0.3750000  -0.5000000), wk =   0.0039062
        k(  302) = (  -0.5000000  -0.3750000  -0.3750000), wk =   0.0039062
        k(  303) = (  -0.5000000  -0.3750000  -0.2500000), wk =   0.0039062
        k(  304) = (  -0.5000000  -0.3750000  -0.1250000), wk =   0.0039062
        k(  305) = (  -0.5000000  -0.2500000  -0.0000000), wk =   0.0039062
        k(  306) = (  -0.5000000  -0.2500000   0.1250000), wk =   0.0039062
        k(  307) = (  -0.5000000  -0.2500000   0.2500000), wk =   0.0039062
        k(  308) = (  -0.5000000  -0.2500000   0.3750000), wk =   0.0039062
        k(  309) = (  -0.5000000  -0.2500000  -0.5000000), wk =   0.0039062
        k(  310) = (  -0.5000000  -0.2500000  -0.3750000), wk =   0.0039062
        k(  311) = (  -0.5000000  -0.2500000  -0.2500000), wk =   0.0039062
        k(  312) = (  -0.5000000  -0.2500000  -0.1250000), wk =   0.0039062
        k(  313) = (  -0.5000000  -0.1250000  -0.0000000), wk =   0.0039062
        k(  314) = (  -0.5000000  -0.1250000   0.1250000), wk =   0.0039062
        k(  315) = (  -0.5000000  -0.1250000   0.2500000), wk =   0.0039062
        k(  316) = (  -0.5000000  -0.1250000   0.3750000), wk =   0.0039062
        k(  317) = (  -0.5000000  -0.1250000  -0.5000000), wk =   0.0039062
        k(  318) = (  -0.5000000  -0.1250000  -0.3750000), wk =   0.0039062
        k(  319) = (  -0.5000000  -0.1250000  -0.2500000), wk =   0.0039062
        k(  320) = (  -0.5000000  -0.1250000  -0.1250000), wk =   0.0039062
        k(  321) = (  -0.3750000  -0.0000000   0.0000000), wk =   0.0039062
        k(  322) = (  -0.3750000   0.0000000   0.1250000), wk =   0.0039062
        k(  323) = (  -0.3750000   0.0000000   0.2500000), wk =   0.0039062
        k(  324) = (  -0.3750000  -0.0000000   0.3750000), wk =   0.0039062
        k(  325) = (  -0.3750000  -0.0000000  -0.5000000), wk =   0.0039062
        k(  326) = (  -0.3750000  -0.0000000  -0.3750000), wk =   0.0039062
        k(  327) = (  -0.3750000  -0.0000000  -0.2500000), wk =   0.0039062
        k(  328) = (  -0.3750000  -0.0000000  -0.1250000), wk =   0.0039062
        k(  329) = (  -0.3750000   0.1250000  -0.0000000), wk =   0.0039062
        k(  330) = (  -0.3750000   0.1250000   0.1250000), wk =   0.0039062
        k(  331) = (  -0.3750000   0.1250000   0.2500000), wk =   0.0039062
        k(  332) = (  -0.3750000   0.1250000   0.3750000), wk =   0.0039062
        k(  333) = (  -0.3750000   0.1250000  -0.5000000), wk =   0.0039062
        k(  334) = (  -0.3750000   0.1250000  -0.3750000), wk =   0.0039062
        k(  335) = (  -0.3750000   0.1250000  -0.2500000), wk =   0.0039062
        k(  336) = (  -0.3750000   0.1250000  -0.1250000), wk =   0.0039062
        k(  337) = (  -0.3750000   0.2500000   0.0000000), wk =   0.0039062
        k(  338) = (  -0.3750000   0.2500000   0.1250000), wk =   0.0039062
        k(  339) = (  -0.3750000   0.2500000   0.2500000), wk =   0.0039062
        k(  340) = (  -0.3750000   0.2500000   0.3750000), wk =   0.0039062
        k(  341) = (  -0.3750000   0.2500000  -0.5000000), wk =   0.0039062
        k(  342) = (  -0.3750000   0.2500000  -0.3750000), wk =   0.0039062
        k(  343) = (  -0.3750000   0.2500000  -0.2500000), wk =   0.0039062
        k(  344) = (  -0.3750000   0.2500000  -0.1250000), wk =   0.0039062
        k(  345) = (  -0.3750000   0.3750000  -0.0000000), wk =   0.0039062
        k(  346) = (  -0.3750000   0.3750000   0.1250000), wk =   0.0039062
        k(  347) = (  -0.3750000   0.3750000   0.2500000), wk =   0.0039062
        k(  348) = (  -0.3750000   0.3750000   0.3750000), wk =   0.0039062
        k(  349) = (  -0.3750000   0.3750000  -0.5000000), wk =   0.0039062
        k(  350) = (  -0.3750000   0.3750000  -0.3750000), wk =   0.0039062
        k(  351) = (  -0.3750000   0.3750000  -0.2500000), wk =   0.0039062
        k(  352) = (  -0.3750000   0.3750000  -0.1250000), wk =   0.0039062
        k(  353) = (  -0.3750000  -0.5000000  -0.0000000), wk =   0.0039062
        k(  354) = (  -0.3750000  -0.5000000   0.1250000), wk =   0.0039062
        k(  355) = (  -0.3750000  -0.5000000   0.2500000), wk =   0.0039062
        k(  356) = (  -0.3750000  -0.5000000   0.3750000), wk =   0.0039062
        k(  357) = (  -0.3750000  -0.5000000  -0.5000000), wk =   0.0039062
        k(  358) = (  -0.3750000  -0.5000000  -0.3750000), wk =   0.0039062
        k(  359) = (  -0.3750000  -0.5000000  -0.2500000), wk =   0.0039062
        k(  360) = (  -0.3750000  -0.5000000  -0.1250000), wk =   0.0039062
        k(  361) = (  -0.3750000  -0.3750000   0.0000000), wk =   0.0039062
        k(  362) = (  -0.3750000  -0.3750000   0.1250000), wk =   0.0039062
        k(  363) = (  -0.3750000  -0.3750000   0.2500000), wk =   0.0039062
        k(  364) = (  -0.3750000  -0.3750000   0.3750000), wk =   0.0039062
        k(  365) = (  -0.3750000  -0.3750000  -0.5000000), wk =   0.0039062
        k(  366) = (  -0.3750000  -0.3750000  -0.3750000), wk =   0.0039062
        k(  367) = (  -0.3750000  -0.3750000  -0.2500000), wk =   0.0039062
        k(  368) = (  -0.3750000  -0.3750000  -0.1250000), wk =   0.0039062
        k(  369) = (  -0.3750000  -0.2500000  -0.0000000), wk =   0.0039062
        k(  370) = (  -0.3750000  -0.2500000   0.1250000), wk =   0.0039062
        k(  371) = (  -0.3750000  -0.2500000   0.2500000), wk =   0.0039062
        k(  372) = (  -0.3750000  -0.2500000   0.3750000), wk =   0.0039062
        k(  373) = (  -0.3750000  -0.2500000  -0.5000000), wk =   0.0039062
        k(  374) = (  -0.3750000  -0.2500000  -0.3750000), wk =   0.0039062
        k(  375) = (  -0.3750000  -0.2500000  -0.2500000), wk =   0.0039062
        k(  376) = (  -0.3750000  -0.2500000  -0.1250000), wk =   0.0039062
        k(  377) = (  -0.3750000  -0.1250000   0.0000000), wk =   0.0039062
        k(  378) = (  -0.3750000  -0.1250000   0.1250000), wk =   0.0039062
        k(  379) = (  -0.3750000  -0.1250000   0.2500000), wk =   0.0039062
        k(  380) = (  -0.3750000  -0.1250000   0.3750000), wk =   0.0039062
        k(  381) = (  -0.3750000  -0.1250000  -0.5000000), wk =   0.0039062
        k(  382) = (  -0.3750000  -0.1250000  -0.3750000), wk =   0.0039062
        k(  383) = (  -0.3750000  -0.1250000  -0.2500000), wk =   0.0039062
        k(  384) = (  -0.3750000  -0.1250000  -0.1250000), wk =   0.0039062
        k(  385) = (  -0.2500000  -0.0000000   0.0000000), wk =   0.0039062
        k(  386) = (  -0.2500000   0.0000000   0.1250000), wk =   0.0039062
        k(  387) = (  -0.2500000  -0.0000000   0.2500000), wk =   0.0039062
        k(  388) = (  -0.2500000  -0.0000000   0.3750000), wk =   0.0039062
        k(  389) = (  -0.2500000  -0.0000000  -0.5000000), wk =   0.0039062
        k(  390) = (  -0.2500000  -0.0000000  -0.3750000), wk =   0.0039062
        k(  391) = (  -0.2500000  -0.0000000  -0.2500000), wk =   0.0039062
        k(  392) = (  -0.2500000  -0.0000000  -0.1250000), wk =   0.0039062
        k(  393) = (  -0.2500000   0.1250000   0.0000000), wk =   0.0039062
        k(  394) = (  -0.2500000   0.1250000   0.1250000), wk =   0.0039062
        k(  395) = (  -0.2500000   0.1250000   0.2500000), wk =   0.0039062
        k(  396) = (  -0.2500000   0.1250000   0.3750000), wk =   0.0039062
        k(  397) = (  -0.2500000   0.1250000  -0.5000000), wk =   0.0039062
        k(  398) = (  -0.2500000   0.1250000  -0.3750000), wk =   0.0039062
        k(  399) = (  -0.2500000   0.1250000  -0.2500000), wk =   0.0039062
        k(  400) = (  -0.2500000   0.1250000  -0.1250000), wk =   0.0039062
        k(  401) = (  -0.2500000   0.2500000   0.0000000), wk =   0.0039062
        k(  402) = (  -0.2500000   0.2500000   0.1250000), wk =   0.0039062
        k(  403) = (  -0.2500000   0.2500000   0.2500000), wk =   0.0039062
        k(  404) = (  -0.2500000   0.2500000   0.3750000), wk =   0.0039062
        k(  405) = (  -0.2500000   0.2500000  -0.5000000), wk =   0.0039062
        k(  406) = (  -0.2500000   0.2500000  -0.3750000), wk =   0.0039062
        k(  407) = (  -0.2500000   0.2500000  -0.2500000), wk =   0.0039062
        k(  408) = (  -0.2500000   0.2500000  -0.1250000), wk =   0.0039062
        k(  409) = (  -0.2500000   0.3750000   0.0000000), wk =   0.0039062
        k(  410) = (  -0.2500000   0.3750000   0.1250000), wk =   0.0039062
        k(  411) = (  -0.2500000   0.3750000   0.2500000), wk =   0.0039062
        k(  412) = (  -0.2500000   0.3750000   0.3750000), wk =   0.0039062
        k(  413) = (  -0.2500000   0.3750000  -0.5000000), wk =   0.0039062
        k(  414) = (  -0.2500000   0.3750000  -0.3750000), wk =   0.0039062
        k(  415) = (  -0.2500000   0.3750000  -0.2500000), wk =   0.0039062
        k(  416) = (  -0.2500000   0.3750000  -0.1250000), wk =   0.0039062
        k(  417) = (  -0.2500000  -0.5000000  -0.0000000), wk =   0.0039062
        k(  418) = (  -0.2500000  -0.5000000   0.1250000), wk =   0.0039062
        k(  419) = (  -0.2500000  -0.5000000   0.2500000), wk =   0.0039062
        k(  420) = (  -0.2500000  -0.5000000   0.3750000), wk =   0.0039062
        k(  421) = (  -0.2500000  -0.5000000  -0.5000000), wk =   0.0039062
        k(  422) = (  -0.2500000  -0.5000000  -0.3750000), wk =   0.0039062
        k(  423) = (  -0.2500000  -0.5000000  -0.2500000), wk =   0.0039062
        k(  424) = (  -0.2500000  -0.5000000  -0.1250000), wk =   0.0039062
        k(  425) = (  -0.2500000  -0.3750000  -0.0000000), wk =   0.0039062
        k(  426) = (  -0.2500000  -0.3750000   0.1250000), wk =   0.0039062
        k(  427) = (  -0.2500000  -0.3750000   0.2500000), wk =   0.0039062
        k(  428) = (  -0.2500000  -0.3750000   0.3750000), wk =   0.0039062
        k(  429) = (  -0.2500000  -0.3750000  -0.5000000), wk =   0.0039062
        k(  430) = (  -0.2500000  -0.3750000  -0.3750000), wk =   0.0039062
        k(  431) = (  -0.2500000  -0.3750000  -0.2500000), wk =   0.0039062
        k(  432) = (  -0.2500000  -0.3750000  -0.1250000), wk =   0.0039062
        k(  433) = (  -0.2500000  -0.2500000  -0.0000000), wk =   0.0039062
        k(  434) = (  -0.2500000  -0.2500000   0.1250000), wk =   0.0039062
        k(  435) = (  -0.2500000  -0.2500000   0.2500000), wk =   0.0039062
        k(  436) = (  -0.2500000  -0.2500000   0.3750000), wk =   0.0039062
        k(  437) = (  -0.2500000  -0.2500000  -0.5000000), wk =   0.0039062
        k(  438) = (  -0.2500000  -0.2500000  -0.3750000), wk =   0.0039062
        k(  439) = (  -0.2500000  -0.2500000  -0.2500000), wk =   0.0039062
        k(  440) = (  -0.2500000  -0.2500000  -0.1250000), wk =   0.0039062
        k(  441) = (  -0.2500000  -0.1250000  -0.0000000), wk =   0.0039062
        k(  442) = (  -0.2500000  -0.1250000   0.1250000), wk =   0.0039062
        k(  443) = (  -0.2500000  -0.1250000   0.2500000), wk =   0.0039062
        k(  444) = (  -0.2500000  -0.1250000   0.3750000), wk =   0.0039062
        k(  445) = (  -0.2500000  -0.1250000  -0.5000000), wk =   0.0039062
        k(  446) = (  -0.2500000  -0.1250000  -0.3750000), wk =   0.0039062
        k(  447) = (  -0.2500000  -0.1250000  -0.2500000), wk =   0.0039062
        k(  448) = (  -0.2500000  -0.1250000  -0.1250000), wk =   0.0039062
        k(  449) = (  -0.1250000  -0.0000000   0.0000000), wk =   0.0039062
        k(  450) = (  -0.1250000  -0.0000000   0.1250000), wk =   0.0039062
        k(  451) = (  -0.1250000  -0.0000000   0.2500000), wk =   0.0039062
        k(  452) = (  -0.1250000  -0.0000000   0.3750000), wk =   0.0039062
        k(  453) = (  -0.1250000   0.0000000  -0.5000000), wk =   0.0039062
        k(  454) = (  -0.1250000  -0.0000000  -0.3750000), wk =   0.0039062
        k(  455) = (  -0.1250000  -0.0000000  -0.2500000), wk =   0.0039062
        k(  456) = (  -0.1250000  -0.0000000  -0.1250000), wk =   0.0039062
        k(  457) = (  -0.1250000   0.1250000   0.0000000), wk =   0.0039062
        k(  458) = (  -0.1250000   0.1250000   0.1250000), wk =   0.0039062
        k(  459) = (  -0.1250000   0.1250000   0.2500000), wk =   0.0039062
        k(  460) = (  -0.1250000   0.1250000   0.3750000), wk =   0.0039062
        k(  461) = (  -0.1250000   0.1250000  -0.5000000), wk =   0.0039062
        k(  462) = (  -0.1250000   0.1250000  -0.3750000), wk =   0.0039062
        k(  463) = (  -0.1250000   0.1250000  -0.2500000), wk =   0.0039062
        k(  464) = (  -0.1250000   0.1250000  -0.1250000), wk =   0.0039062
        k(  465) = (  -0.1250000   0.2500000   0.0000000), wk =   0.0039062
        k(  466) = (  -0.1250000   0.2500000   0.1250000), wk =   0.0039062
        k(  467) = (  -0.1250000   0.2500000   0.2500000), wk =   0.0039062
        k(  468) = (  -0.1250000   0.2500000   0.3750000), wk =   0.0039062
        k(  469) = (  -0.1250000   0.2500000  -0.5000000), wk =   0.0039062
        k(  470) = (  -0.1250000   0.2500000  -0.3750000), wk =   0.0039062
        k(  471) = (  -0.1250000   0.2500000  -0.2500000), wk =   0.0039062
        k(  472) = (  -0.1250000   0.2500000  -0.1250000), wk =   0.0039062
        k(  473) = (  -0.1250000   0.3750000   0.0000000), wk =   0.0039062
        k(  474) = (  -0.1250000   0.3750000   0.1250000), wk =   0.0039062
        k(  475) = (  -0.1250000   0.3750000   0.2500000), wk =   0.0039062
        k(  476) = (  -0.1250000   0.3750000   0.3750000), wk =   0.0039062
        k(  477) = (  -0.1250000   0.3750000  -0.5000000), wk =   0.0039062
        k(  478) = (  -0.1250000   0.3750000  -0.3750000), wk =   0.0039062
        k(  479) = (  -0.1250000   0.3750000  -0.2500000), wk =   0.0039062
        k(  480) = (  -0.1250000   0.3750000  -0.1250000), wk =   0.0039062
        k(  481) = (  -0.1250000  -0.5000000   0.0000000), wk =   0.0039062
        k(  482) = (  -0.1250000  -0.5000000   0.1250000), wk =   0.0039062
        k(  483) = (  -0.1250000  -0.5000000   0.2500000), wk =   0.0039062
        k(  484) = (  -0.1250000  -0.5000000   0.3750000), wk =   0.0039062
        k(  485) = (  -0.1250000  -0.5000000  -0.5000000), wk =   0.0039062
[...]
     1.0000   1.0000   0.0000   0.0000

          k =-0.2315-0.2786 0.2205 (   439 PWs)   bands (ev):

     0.9738   4.2693  13.7711  15.9224

     occupation numbers 
     1.0000   1.0000   0.0000   0.0000

          k =-0.2542-0.3219-0.3107 (   443 PWs)   bands (ev):

     1.7649   2.9470  13.9879  16.5238

     occupation numbers 
     1.0000   1.0000   0.0000   0.0000

          k =-0.2510-0.3157-0.2348 (   438 PWs)   bands (ev):

     1.8488   2.8447  13.6123  17.3716

     occupation numbers 
     1.0000   1.0000   0.0000   0.0000

          k =-0.2478-0.3095-0.1589 (   438 PWs)   bands (ev):

     1.0362   4.1626  12.9409  15.9663

     occupation numbers 
     1.0000   1.0000   0.0000   0.0000

          k =-0.2445-0.3033-0.0830 (   437 PWs)   bands (ev):

     0.4854   5.7179  11.6995  15.1666

     occupation numbers 
     1.0000   1.0000   0.0000   0.0000

          k =-0.1230-0.0772-0.0050 (   436 PWs)   bands (ev):

    -2.6440   4.0763   9.3461  22.7841

     occupation numbers 
     1.0000   1.0000   0.0000   0.0000

          k =-0.1197-0.0710 0.0709 (   433 PWs)   bands (ev):

    -2.5692   3.6213   9.9827  23.1422

     occupation numbers 
     1.0000   1.0000   0.0000   0.0000

          k =-0.1165-0.0649 0.1468 (   435 PWs)   bands (ev):

    -2.2305   2.2881  12.0853  23.4964

     occupation numbers 
     1.0000   1.0000   0.0000   0.0000

          k =-0.1132-0.0587 0.2227 (   434 PWs)   bands (ev):

    -1.6294   0.9021  14.7934  22.1626

     occupation numbers 
     1.0000   1.0000   0.0000   0.0000

          k =-0.1359-0.1020-0.3085 (   437 PWs)   bands (ev):

    -0.7873  -0.2853  17.7743  19.1642

     occupation numbers 
     1.0000   1.0000   0.0000   0.0000

          k =-0.1327-0.0958-0.2326 (   441 PWs)   bands (ev):

    -1.2945   0.3657  16.0368  20.6449

     occupation numbers 
     1.0000   1.0000   0.0000   0.0000

          k =-0.1295-0.0896-0.1568 (   443 PWs)   bands (ev):

    -2.0042   1.6926  13.1510  22.2002

     occupation numbers 
     1.0000   1.0000   0.0000   0.0000

          k =-0.1262-0.0834-0.0809 (   441 PWs)   bands (ev):

    -2.4556   3.1058  10.7327  22.5097

     occupation numbers 
     1.0000   1.0000   0.0000   0.0000

          k =-0.1276 0.0654-0.0078 (   436 PWs)   bands (ev):

    -2.6561   4.1060   9.2597  22.5189

     occupation numbers 
     1.0000   1.0000   0.0000   0.0000

          k =-0.1244 0.0716 0.0681 (   437 PWs)   bands (ev):

    -2.5523   3.4821  10.1434  22.8192

     occupation numbers 
     1.0000   1.0000   0.0000   0.0000

          k =-0.1211 0.0778 0.1440 (   436 PWs)   bands (ev):

    -2.1854   2.1111  12.3751  23.3635

     occupation numbers 
     1.0000   1.0000   0.0000   0.0000

          k =-0.1179 0.0840 0.2199 (   437 PWs)   bands (ev):

    -1.5566   0.7385  15.1828  22.2506

     occupation numbers 
     1.0000   1.0000   0.0000   0.0000

          k =-0.1406 0.0407-0.3113 (   431 PWs)   bands (ev):

    -0.7115  -0.3976  18.2753  18.9376

     occupation numbers 
     1.0000   1.0000   0.0000   0.0000

          k =-0.1374 0.0469-0.2355 (   435 PWs)   bands (ev):

    -1.3987   0.4925  15.7047  21.5723

     occupation numbers 
     1.0000   1.0000   0.0000   0.0000

          k =-0.1341 0.0531-0.1596 (   439 PWs)   bands (ev):

    -2.0780   1.8411  12.8260  22.7247

     occupation numbers 
     1.0000   1.0000   0.0000   0.0000

          k =-0.1309 0.0592-0.0837 (   435 PWs)   bands (ev):

    -2.4978   3.2496  10.4658  22.4939

     occupation numbers 
     1.0000   1.0000   0.0000   0.0000

          k =-0.1323 0.2081-0.0106 (   436 PWs)   bands (ev):

    -1.7414   5.3200   9.4941  19.0313

     occupation numbers 
     1.0000   1.0000   0.0000   0.0000

          k =-0.1290 0.2143 0.0653 (   437 PWs)   bands (ev):

    -1.6075   4.4275  10.7025  19.0698

     occupation numbers 
     1.0000   1.0000   0.0000   0.0000

          k =-0.1258 0.2205 0.1412 (   435 PWs)   bands (ev):

    -1.2090   2.9418  13.0549  19.3046

     occupation numbers 
     1.0000   1.0000   0.0000   0.0000

          k =-0.1225 0.2267 0.2170 (   433 PWs)   bands (ev):

    -0.5462   1.5473  15.7880  19.5495

     occupation numbers 
     1.0000   1.0000   0.0000   0.0000

          k =-0.1453 0.1833-0.3142 (   435 PWs)   bands (ev):

     0.2542   0.5044  18.0298  18.8992

     occupation numbers 
     1.0000   1.0000   0.0000   0.0000

          k =-0.1420 0.1895-0.2383 (   431 PWs)   bands (ev):

    -0.5634   1.5911  15.6005  20.0980

     occupation numbers 
     1.0000   1.0000   0.0000   0.0000

          k =-0.1388 0.1957-0.1624 (   436 PWs)   bands (ev):

    -1.2184   3.0012  12.8878  19.5984

     occupation numbers 
     1.0000   1.0000   0.0000   0.0000

          k =-0.1355 0.2019-0.0865 (   436 PWs)   bands (ev):

    -1.6114   4.4903  10.5813  19.2221

     occupation numbers 
     1.0000   1.0000   0.0000   0.0000

          k =-0.1369 0.3508-0.0134 (   436 PWs)   bands (ev):

     0.0958   7.6504   9.6611  14.1842

     occupation numbers 
     1.0000   1.0000   0.0000   0.0000

          k =-0.1337 0.3570 0.0625 (   435 PWs)   bands (ev):

     0.2596   6.2741  11.0122  14.5639

     occupation numbers 
     1.0000   1.0000   0.0000   0.0000

          k =-0.1304 0.3632 0.1383 (   438 PWs)   bands (ev):

     0.6892   4.6614  12.4289  15.6747

     occupation numbers 
     1.0000   1.0000   0.0000   0.0000

          k =-0.1272 0.3693 0.2142 (   435 PWs)   bands (ev):

     1.3831   3.2583  13.3841  16.4837

     occupation numbers 
     1.0000   1.0000   0.0000   0.0000

          k =-0.1499 0.3260-0.3170 (   437 PWs)   bands (ev):

     2.0291   2.4234  14.1689  15.7951

     occupation numbers 
     1.0000   1.0000   0.0000   0.0000

          k =-0.1467 0.3322-0.2411 (   431 PWs)   bands (ev):

     1.1877   3.6014  14.4050  15.0681

     occupation numbers 
     1.0000   1.0000   0.0000   0.0000

          k =-0.1434 0.3384-0.1652 (   431 PWs)   bands (ev):

     0.5614   5.0711  12.8327  14.7806

     occupation numbers 
     1.0000   1.0000   0.0000   0.0000

          k =-0.1402 0.3446-0.0893 (   432 PWs)   bands (ev):

     0.1973   6.7008  10.8111  14.3101

     occupation numbers 
     1.0000   1.0000   0.0000   0.0000

          k =-0.1043-0.6479 0.0063 (   436 PWs)   bands (ev):

     2.6877   7.2815  10.6598  13.5500

     occupation numbers 
     1.0000   1.0000   0.0000   0.0000

          k =-0.1011-0.6417 0.0822 (   436 PWs)   bands (ev):

     2.8654   6.9640   9.8874  14.5681

     occupation numbers 
     1.0000   1.0000   0.0000   0.0000

          k =-0.0979-0.6355 0.1581 (   437 PWs)   bands (ev):

     3.2967   6.2862   9.4586  13.7366

     occupation numbers 
     1.0000   1.0000   0.0000   0.0000

          k =-0.0946-0.6293 0.2339 (   437 PWs)   bands (ev):

     3.9570   5.3947   9.5426  12.4748

     occupation numbers 
     1.0000   1.0000   0.0000   0.0000

          k =-0.1173-0.6727-0.2973 (   439 PWs)   bands (ev):

     4.3245   5.0168   9.9987  11.4205

     occupation numbers 
     1.0000   1.0000   0.0000   0.0000

          k =-0.1141-0.6665-0.2214 (   442 PWs)   bands (ev):

     3.6449   5.9464  10.6493  10.8004

     occupation numbers 
     1.0000   1.0000   0.0000   0.0000

          k =-0.1108-0.6603-0.1455 (   441 PWs)   bands (ev):

     3.0936   6.8342  10.4999  11.7086

     occupation numbers 
     1.0000   1.0000   0.0000   0.0000

          k =-0.1076-0.6541-0.0696 (   433 PWs)   bands (ev):

     2.7671   7.2818  10.8261  12.6556

     occupation numbers 
     1.0000   1.0000   0.0000   0.0000

          k =-0.1090-0.5052 0.0035 (   438 PWs)   bands (ev):

     2.7568   7.1661  10.5087  14.1341

     occupation numbers 
     1.0000   1.0000   0.0000   0.0000

          k =-0.1058-0.4990 0.0794 (   437 PWs)   bands (ev):

     2.7568   7.2546  10.7695  13.1510

     occupation numbers 
     1.0000   1.0000   0.0000   0.0000

          k =-0.1025-0.4929 0.1552 (   438 PWs)   bands (ev):

     3.0113   6.9890  10.5500  11.8296

     occupation numbers 
     1.0000   1.0000   0.0000   0.0000

          k =-0.0993-0.4867 0.2311 (   439 PWs)   bands (ev):

     3.5018   6.2768  10.5537  10.8211

     occupation numbers 
     1.0000   1.0000   0.0000   0.0000

          k =-0.1220-0.5300-0.3001 (   436 PWs)   bands (ev):

     4.1758   5.3378  10.0970  11.0722

     occupation numbers 
     1.0000   1.0000   0.0000   0.0000

          k =-0.1187-0.5238-0.2242 (   440 PWs)   bands (ev):

     4.2572   5.1745   9.6775  11.9737

     occupation numbers 
     1.0000   1.0000   0.0000   0.0000

          k =-0.1155-0.5176-0.1483 (   436 PWs)   bands (ev):

     3.5395   6.0321   9.5769  13.1798

     occupation numbers 
     1.0000   1.0000   0.0000   0.0000

          k =-0.1122-0.5114-0.0724 (   433 PWs)   bands (ev):

     3.0207   6.7653   9.8892  14.4189

     occupation numbers 
     1.0000   1.0000   0.0000   0.0000

          k =-0.1137-0.3626 0.0007 (   437 PWs)   bands (ev):

     0.1548   7.3953   9.9457  14.4078

     occupation numbers 
     1.0000   1.0000   0.0000   0.0000

          k =-0.1104-0.3564 0.0765 (   435 PWs)   bands (ev):

     0.1705   7.1651  10.3544  14.4326

     occupation numbers 
     1.0000   1.0000   0.0000   0.0000

          k =-0.1072-0.3502 0.1524 (   440 PWs)   bands (ev):

     0.4553   5.6058  12.2432  14.6632

     occupation numbers 
     1.0000   1.0000   0.0000   0.0000

          k =-0.1039-0.3440 0.2283 (   435 PWs)   bands (ev):

     1.0080   4.0961  13.9022  14.8090

     occupation numbers 
     1.0000   1.0000   0.0000   0.0000

          k =-0.1266-0.3873-0.3029 (   433 PWs)   bands (ev):

     1.8188   2.8058  14.1592  15.3931

     occupation numbers 
     1.0000   1.0000   0.0000   0.0000

          k =-0.1234-0.3811-0.2270 (   434 PWs)   bands (ev):

     1.7164   2.9400  13.5744  16.2960

     occupation numbers 
     1.0000   1.0000   0.0000   0.0000

          k =-0.1201-0.3750-0.1511 (   434 PWs)   bands (ev):

     0.9320   4.2754  12.7399  15.6747

     occupation numbers 
     1.0000   1.0000   0.0000   0.0000

          k =-0.1169-0.3688-0.0752 (   432 PWs)   bands (ev):

     0.4090   5.8393  11.4347  14.7631

     occupation numbers 
     1.0000   1.0000   0.0000   0.0000

          k =-0.1183-0.2199-0.0022 (   430 PWs)   bands (ev):

    -1.7052   5.2158   9.7453  18.9397

     occupation numbers 
     1.0000   1.0000   0.0000   0.0000

          k =-0.1151-0.2137 0.0737 (   431 PWs)   bands (ev):

    -1.6596   4.8865  10.1946  19.1833

     occupation numbers 
     1.0000   1.0000   0.0000   0.0000

          k =-0.1118-0.2075 0.1496 (   434 PWs)   bands (ev):

    -1.3468   3.4926  12.2320  19.5468

     occupation numbers 
     1.0000   1.0000   0.0000   0.0000

          k =-0.1086-0.2013 0.2255 (   440 PWs)   bands (ev):

    -0.7680   2.0456  14.7501  19.8706

     occupation numbers 
     1.0000   1.0000   0.0000   0.0000

          k =-0.1313-0.2447-0.3057 (   442 PWs)   bands (ev):

     0.0646   0.7986  17.1513  18.9825

     occupation numbers 
     1.0000   1.0000   0.0000   0.0000

          k =-0.1280-0.2385-0.2298 (   440 PWs)   bands (ev):

    -0.2467   1.2025  16.4472  18.4940

     occupation numbers 
     1.0000   1.0000   0.0000   0.0000

          k =-0.1248-0.2323-0.1539 (   433 PWs)   bands (ev):

    -0.9965   2.5398  13.7700  18.7713

     occupation numbers 
     1.0000   1.0000   0.0000   0.0000

          k =-0.1216-0.2261-0.0781 (   433 PWs)   bands (ev):

    -1.4841   4.0254  11.3547  18.8274

     occupation numbers 
     1.0000   1.0000   0.0000   0.0000

     the Fermi energy is     8.9523 ev

!    total energy              =      -5.35278553 Ry
     estimated scf accuracy    <       0.00213603 Ry
     smearing contrib. (-TS)   =      -0.00004384 Ry
     internal energy E=F+TS    =      -5.35274169 Ry

     The total energy is F=E-TS. E is the sum of the following terms:
     one-electron contribution =       4.18313459 Ry
     hartree contribution      =       0.00540461 Ry
     xc contribution           =      -3.32741379 Ry
     ewald contribution        =      -6.21386709 Ry

     convergence has been achieved in   1 iterations

     Forces acting on atoms (cartesian axes, Ry/au):

     atom    1 type  1   force =    -0.02955610    0.02454485   -0.00891033
     atom    2 type  1   force =     0.02955610   -0.02454485    0.00891033
     The non-local contrib.  to forces
     atom    1 type  1   force =    -0.03453870    0.03512813    0.01547543
     atom    2 type  1   force =     0.03451481   -0.03513098   -0.01547094
     The ionic contribution  to forces
     atom    1 type  1   force =    -0.01550629    0.02061094    0.03795643
     atom    2 type  1   force =     0.01550629   -0.02061094   -0.03795643
     The local contribution  to forces
     atom    1 type  1   force =     0.01879709   -0.03086710   -0.07373573
     atom    2 type  1   force =    -0.01878296    0.03085738    0.07373820
     The core correction contribution to forces
     atom    1 type  1   force =     0.00136614   -0.00163308   -0.00141595
     atom    2 type  1   force =    -0.00136872    0.00162064    0.00130257
     The Hubbard contrib.    to forces
     atom    1 type  1   force =     0.00000000    0.00000000    0.00000000
     atom    2 type  1   force =     0.00000000    0.00000000    0.00000000
     The SCF correction term to forces
     atom    1 type  1   force =     0.00031726    0.00129231    0.01275195
     atom    2 type  1   force =    -0.00032171   -0.00129461   -0.01276061

     Total force =     0.055775     Total SCF correction =     0.018138
     SCF correction compared to forces is large: reduce conv_thr to get better values


     Computing stress (Cartesian axis) and pressure

          total   stress  (Ry/bohr**3)                   (kbar)     P=       75.30
   0.00089613  -0.00005988   0.00078455          131.82       -8.81      115.41
  -0.00005988   0.00028200   0.00030896           -8.81       41.48       45.45
   0.00078455   0.00030896   0.00035756          115.41       45.45       52.60

     kinetic stress (kbar)   3057.55     -5.39     85.60
                               -5.39   2987.02     58.74
                               85.60     58.74   2940.61

     local   stress (kbar)    211.20     56.95    -26.39
                               56.95    375.56    -16.75
                              -26.39    -16.75    216.26

     nonloc. stress (kbar)    956.77    -12.77      1.52
                              -12.77    929.27     -0.31
                                1.52     -0.31    973.59

     hartree stress (kbar)      4.12     -0.09     -0.80
                               -0.09      2.47     -0.63
                               -0.80     -0.63      1.18

     exc-cor stress (kbar)    114.50     -0.89      0.84
                               -0.89    111.84      0.51
                                0.84      0.51    114.04

     corecor stress (kbar)  -1283.11      2.67     -2.63
                                2.67  -1275.16     -1.65
                               -2.63     -1.65  -1281.45

     ewald   stress (kbar)  -2929.20    -49.28     57.26
                              -49.28  -3089.53      5.54
                               57.26      5.54  -2911.63

     hubbard stress (kbar)      0.00      0.00      0.00
                                0.00      0.00      0.00
                                0.00      0.00      0.00

     DFT-D   stress (kbar)      0.00      0.00      0.00
                                0.00      0.00      0.00
                                0.00      0.00      0.00

     XDM     stress (kbar)      0.00      0.00      0.00
                                0.00      0.00      0.00
                                0.00      0.00      0.00

     dft-nl  stress (kbar)      0.00      0.00      0.00
                                0.00      0.00      0.00
                                0.00      0.00      0.00

     TS-vdW  stress (kbar)      0.00      0.00      0.00
                                0.00      0.00      0.00
                                0.00      0.00      0.00

     MDB     stress (kbar)      0.00      0.00      0.00
                                0.00      0.00      0.00
                                0.00      0.00      0.00

     3D-RISM stress (kbar)      0.00      0.00      0.00
                                0.00      0.00      0.00
                                0.00      0.00      0.00


     Writing all to output data dir ../tmp/Be/Be.save/ :
     XML data file, charge density, pseudopotentials, collected wavefunctions

     init_run     :      1.41s CPU      1.47s WALL (       1 calls)
     electrons    :      6.10s CPU      6.47s WALL (       1 calls)
     forces       :      0.11s CPU      0.11s WALL (       1 calls)
     stress       :      1.00s CPU      1.00s WALL (       1 calls)

     Called by init_run:
     wfcinit      :      1.10s CPU      1.15s WALL (       1 calls)
     wfcinit:atom :      0.03s CPU      0.03s WALL (     512 calls)
     wfcinit:wfcr :      0.91s CPU      0.95s WALL (     512 calls)
     potinit      :      0.02s CPU      0.02s WALL (       1 calls)
     hinit0       :      0.27s CPU      0.27s WALL (       1 calls)

     Called by electrons:
     c_bands      :      5.49s CPU      5.83s WALL (       2 calls)
     sum_band     :      0.60s CPU      0.62s WALL (       2 calls)
     v_of_rho     :      0.01s CPU      0.01s WALL (       2 calls)
     v_h          :      0.00s CPU      0.00s WALL (       2 calls)
     v_xc         :      0.01s CPU      0.01s WALL (       4 calls)
     newd         :      0.01s CPU      0.01s WALL (       2 calls)
     mix_rho      :      0.00s CPU      0.00s WALL (       2 calls)

     Called by c_bands:
     init_us_2    :      0.32s CPU      0.33s WALL (    3584 calls)
     cegterg      :      5.23s CPU      5.55s WALL (    1024 calls)

     Called by sum_band:
     sum_band:wei :      0.00s CPU      0.00s WALL (       2 calls)
     sum_band:loo :      0.59s CPU      0.61s WALL (       2 calls)
     sum_band:buf :      0.01s CPU      0.01s WALL (    1024 calls)
     sum_band:ini :      0.10s CPU      0.10s WALL (    1024 calls)
     sum_band:cal :      0.02s CPU      0.02s WALL (    1024 calls)
     sum_band:bec :      0.00s CPU      0.00s WALL (    1024 calls)
     addusdens    :      0.01s CPU      0.01s WALL (       2 calls)
                                        0.00s GPU  (       2 calls)
     addusd:skk   :      0.00s CPU      0.00s WALL (       2 calls)
                                        0.00s GPU  (       2 calls)

     Called by *egterg:
     cdiaghg      :      0.23s CPU      0.26s WALL (    6242 calls)
     cegterg:over :      0.08s CPU      0.08s WALL (    5730 calls)
     cegterg:upda :      0.10s CPU      0.11s WALL (    5730 calls)
     cegterg:last :      0.14s CPU      0.14s WALL (    4481 calls)
     h_psi        :      5.29s CPU      5.61s WALL (    7266 calls)
     s_psi        :      0.12s CPU      0.12s WALL (    7266 calls)
     g_psi        :      0.04s CPU      0.04s WALL (    5730 calls)

     Called by h_psi:
     h_psi:calbec :      0.12s CPU      0.13s WALL (    7266 calls)
     vloc_psi     :      4.99s CPU      5.28s WALL (    7266 calls)
     add_vuspsi   :      0.12s CPU      0.14s WALL (    7266 calls)

     General routines
     calbec       :      0.17s CPU      0.17s WALL (   10850 calls)
     fft          :      0.13s CPU      0.13s WALL (      48 calls)
     ffts         :      0.00s CPU      0.00s WALL (       2 calls)
     fftw         :      4.84s CPU      5.11s WALL (   51690 calls)


     PWSCF        :      8.72s CPU      9.18s WALL


   This run was terminated on:  18:50:28   6May2024            

=------------------------------------------------------------------------------=
   JOB DONE.
=------------------------------------------------------------------------------=
