
     Program PWSCF v.7.3.1 starts on  6May2024 at 18:50:31 

     This program is part of the open-source Quantum ESPRESSO suite
     for quantum simulation of materials; please cite
         "P. Giannozzi et al., J. Phys.:Condens. Matter 21 395502 (2009);
         "P. Giannozzi et al., J. Phys.:Condens. Matter 29 465901 (2017);
         "P. Giannozzi et al., J. Chem. Phys. 152 154105 (2020);
          URL http://www.quantum-espresso.org", 
     in publications or presentations arising from this work. More details at
     http://www.quantum-espresso.org/quote

     Serial version
     2191 MiB available memory on the printing compute node when the environment starts

     Reading input from Be5.pw.in

     Current dimensions of program PWSCF are:
     Max number of different atomic species (ntypx) = 10
     Max number of k-points (npk) =  40000
     Max angular momentum in pseudopotentials (lmaxx) =  4


     G-vector sticks info
     --------------------
     sticks:   dense  smooth     PW     G-vecs:    dense   smooth      PW
     Sum         197     197     77                 3737     3737     929

     Using Slab Decomposition



     bravais-lattice index     =            0
     lattice parameter (alat)  =       4.6529  a.u.
     unit-cell volume          =     108.9916 (a.u.)^3
     number of atoms/cell      =            2
     number of atomic types    =            1
     number of electrons       =         4.00
     number of Kohn-Sham states=            4
     kinetic-energy cutoff     =      40.0000  Ry
     charge density cutoff     =     160.0000  Ry
     scf convergence threshold =      2.0E-02
     mixing beta               =       0.1000
     number of iterations used =            8  plain     mixing
     Exchange-correlation= PBE
                           (   1   4   3   4   0   0   0)

     celldm(1)=   4.652937  celldm(2)=   0.000000  celldm(3)=   0.000000
     celldm(4)=   0.000000  celldm(5)=   0.000000  celldm(6)=   0.000000

     crystal axes: (cart. coord. in units of alat)
               a(1) = (   0.996947  -0.041031  -0.066438 )  
               a(2) = (  -0.400428   0.731160  -0.011428 )  
               a(3) = (  -0.054733  -0.037692   1.524323 )  

     reciprocal axes: (cart. coord. in units 2 pi/alat)
               b(1) = (  1.029699  0.564722  0.050937 )  
               b(2) = (  0.060121  1.401191  0.036806 )  
               b(3) = (  0.045330  0.035119  0.658525 )  


     PseudoPot. # 1 for Be read from file:
     ../pseudo/Be.pbe-n-rrkjus_psl.1.0.0.UPF
     MD5 check sum: 734a25375992c446e1da9bf329ae4716
     Pseudo is Ultrasoft + core correction, Zval =  2.0
     Generated using &quot;atomic&quot; code by A. Dal Corso  v.6.6
     Using radial grid of 1041 points,  4 beta functions with: 
                l(1) =   0
                l(2) =   0
                l(3) =   1
                l(4) =   1
     Q(r) pseudized with 0 coefficients 


     atomic species   valence    mass     pseudopotential
     Be                2.00     9.01218     Be( 1.00)

     No symmetry found


                                    s                        frac. trans.

      isym =  1     identity                                     

 cryst.   s( 1) = (     1          0          0      )
                  (     0          1          0      )
                  (     0          0          1      )

 cart.    s( 1) = (  1.0000000  0.0000000  0.0000000 )
                  (  0.0000000  1.0000000 -0.0000000 )
                  (  0.0000000 -0.0000000  1.0000000 )


   Cartesian axes

     site n.     atom                  positions (alat units)
         1        Be     tau(   1) = (   0.7119091   0.1303712   1.0874996  )
         2        Be     tau(   2) = (  -0.2530106   0.6644642   0.3623569  )

   Crystallographic axes

     site n.     atom                  positions (cryst. coord.)
         1        Be     tau(   1) = (  0.8620696  0.2655018  0.7529951  )
         2        Be     tau(   2) = (  0.1331704  0.9291668  0.2504872  )

     number of k points=   512  Fermi-Dirac smearing, width (Ry)=  0.0019
                       cart. coord. in units 2pi/alat
        k(    1) = (   0.0000000   0.0000000   0.0000000), wk =   0.0039062
        k(    2) = (   0.0056663   0.0043898   0.0823156), wk =   0.0039062
        k(    3) = (   0.0113325   0.0087797   0.1646313), wk =   0.0039062
        k(    4) = (   0.0169988   0.0131695   0.2469469), wk =   0.0039062
        k(    5) = (  -0.0226651  -0.0175593  -0.3292625), wk =   0.0039062
        k(    6) = (  -0.0169988  -0.0131695  -0.2469469), wk =   0.0039062
        k(    7) = (  -0.0113325  -0.0087797  -0.1646313), wk =   0.0039062
        k(    8) = (  -0.0056663  -0.0043898  -0.0823156), wk =   0.0039062
        k(    9) = (   0.0075151   0.1751488   0.0046007), wk =   0.0039062
        k(   10) = (   0.0131813   0.1795387   0.0869164), wk =   0.0039062
        k(   11) = (   0.0188476   0.1839285   0.1692320), wk =   0.0039062
        k(   12) = (   0.0245139   0.1883183   0.2515476), wk =   0.0039062
        k(   13) = (  -0.0151500   0.1575895  -0.3246618), wk =   0.0039062
        k(   14) = (  -0.0094837   0.1619793  -0.2423461), wk =   0.0039062
        k(   15) = (  -0.0038175   0.1663692  -0.1600305), wk =   0.0039062
        k(   16) = (   0.0018488   0.1707590  -0.0777149), wk =   0.0039062
        k(   17) = (   0.0150302   0.3502977   0.0092015), wk =   0.0039062
        k(   18) = (   0.0206964   0.3546875   0.0915171), wk =   0.0039062
        k(   19) = (   0.0263627   0.3590773   0.1738327), wk =   0.0039062
        k(   20) = (   0.0320290   0.3634672   0.2561484), wk =   0.0039062
        k(   21) = (  -0.0076349   0.3327383  -0.3200610), wk =   0.0039062
        k(   22) = (  -0.0019686   0.3371282  -0.2377454), wk =   0.0039062
        k(   23) = (   0.0036976   0.3415180  -0.1554298), wk =   0.0039062
        k(   24) = (   0.0093639   0.3459078  -0.0731141), wk =   0.0039062
        k(   25) = (   0.0225452   0.5254465   0.0138022), wk =   0.0039062
        k(   26) = (   0.0282115   0.5298363   0.0961179), wk =   0.0039062
        k(   27) = (   0.0338778   0.5342262   0.1784335), wk =   0.0039062
        k(   28) = (   0.0395440   0.5386160   0.2607491), wk =   0.0039062
        k(   29) = (  -0.0001198   0.5078871  -0.3154603), wk =   0.0039062
        k(   30) = (   0.0055464   0.5122770  -0.2331447), wk =   0.0039062
        k(   31) = (   0.0112127   0.5166668  -0.1508290), wk =   0.0039062
        k(   32) = (   0.0168790   0.5210567  -0.0685134), wk =   0.0039062
        k(   33) = (  -0.0300603  -0.7005953  -0.0184030), wk =   0.0039062
        k(   34) = (  -0.0243940  -0.6962055   0.0639127), wk =   0.0039062
        k(   35) = (  -0.0187278  -0.6918156   0.1462283), wk =   0.0039062
        k(   36) = (  -0.0130615  -0.6874258   0.2285439), wk =   0.0039062
        k(   37) = (  -0.0527254  -0.7181547  -0.3476655), wk =   0.0039062
        k(   38) = (  -0.0470591  -0.7137648  -0.2653499), wk =   0.0039062
        k(   39) = (  -0.0413928  -0.7093750  -0.1830342), wk =   0.0039062
        k(   40) = (  -0.0357266  -0.7049852  -0.1007186), wk =   0.0039062
        k(   41) = (  -0.0225452  -0.5254465  -0.0138022), wk =   0.0039062
        k(   42) = (  -0.0168790  -0.5210567   0.0685134), wk =   0.0039062
        k(   43) = (  -0.0112127  -0.5166668   0.1508290), wk =   0.0039062
        k(   44) = (  -0.0055464  -0.5122770   0.2331447), wk =   0.0039062
        k(   45) = (  -0.0452103  -0.5430058  -0.3430647), wk =   0.0039062
        k(   46) = (  -0.0395440  -0.5386160  -0.2607491), wk =   0.0039062
        k(   47) = (  -0.0338778  -0.5342262  -0.1784335), wk =   0.0039062
        k(   48) = (  -0.0282115  -0.5298363  -0.0961179), wk =   0.0039062
        k(   49) = (  -0.0150302  -0.3502977  -0.0092015), wk =   0.0039062
        k(   50) = (  -0.0093639  -0.3459078   0.0731141), wk =   0.0039062
        k(   51) = (  -0.0036976  -0.3415180   0.1554298), wk =   0.0039062
        k(   52) = (   0.0019686  -0.3371282   0.2377454), wk =   0.0039062
        k(   53) = (  -0.0376952  -0.3678570  -0.3384640), wk =   0.0039062
        k(   54) = (  -0.0320290  -0.3634672  -0.2561484), wk =   0.0039062
        k(   55) = (  -0.0263627  -0.3590773  -0.1738327), wk =   0.0039062
        k(   56) = (  -0.0206964  -0.3546875  -0.0915171), wk =   0.0039062
        k(   57) = (  -0.0075151  -0.1751488  -0.0046007), wk =   0.0039062
        k(   58) = (  -0.0018488  -0.1707590   0.0777149), wk =   0.0039062
        k(   59) = (   0.0038175  -0.1663692   0.1600305), wk =   0.0039062
        k(   60) = (   0.0094837  -0.1619793   0.2423461), wk =   0.0039062
        k(   61) = (  -0.0301801  -0.1927082  -0.3338633), wk =   0.0039062
        k(   62) = (  -0.0245139  -0.1883183  -0.2515476), wk =   0.0039062
        k(   63) = (  -0.0188476  -0.1839285  -0.1692320), wk =   0.0039062
        k(   64) = (  -0.0131813  -0.1795387  -0.0869164), wk =   0.0039062
        k(   65) = (   0.1287124   0.0705903   0.0063671), wk =   0.0039062
        k(   66) = (   0.1343787   0.0749801   0.0886827), wk =   0.0039062
        k(   67) = (   0.1400449   0.0793700   0.1709984), wk =   0.0039062
        k(   68) = (   0.1457112   0.0837598   0.2533140), wk =   0.0039062
        k(   69) = (   0.1060473   0.0530310  -0.3228954), wk =   0.0039062
        k(   70) = (   0.1117136   0.0574208  -0.2405798), wk =   0.0039062
        k(   71) = (   0.1173799   0.0618106  -0.1582641), wk =   0.0039062
        k(   72) = (   0.1230461   0.0662005  -0.0759485), wk =   0.0039062
        k(   73) = (   0.1362275   0.2457391   0.0109679), wk =   0.0039062
        k(   74) = (   0.1418937   0.2501290   0.0932835), wk =   0.0039062
        k(   75) = (   0.1475600   0.2545188   0.1755991), wk =   0.0039062
        k(   76) = (   0.1532263   0.2589086   0.2579147), wk =   0.0039062
        k(   77) = (   0.1135624   0.2281798  -0.3182947), wk =   0.0039062
        k(   78) = (   0.1192287   0.2325696  -0.2359790), wk =   0.0039062
        k(   79) = (   0.1248949   0.2369595  -0.1536634), wk =   0.0039062
        k(   80) = (   0.1305612   0.2413493  -0.0713478), wk =   0.0039062
        k(   81) = (   0.1437425   0.4208880   0.0155686), wk =   0.0039062
        k(   82) = (   0.1494088   0.4252778   0.0978842), wk =   0.0039062
        k(   83) = (   0.1550751   0.4296676   0.1801999), wk =   0.0039062
        k(   84) = (   0.1607413   0.4340575   0.2625155), wk =   0.0039062
        k(   85) = (   0.1210775   0.4033286  -0.3136939), wk =   0.0039062
        k(   86) = (   0.1267437   0.4077185  -0.2313783), wk =   0.0039062
        k(   87) = (   0.1324100   0.4121083  -0.1490627), wk =   0.0039062
        k(   88) = (   0.1380763   0.4164981  -0.0667470), wk =   0.0039062
        k(   89) = (   0.1512576   0.5960368   0.0201693), wk =   0.0039062
        k(   90) = (   0.1569239   0.6004266   0.1024850), wk =   0.0039062
        k(   91) = (   0.1625902   0.6048165   0.1848006), wk =   0.0039062
        k(   92) = (   0.1682564   0.6092063   0.2671162), wk =   0.0039062
        k(   93) = (   0.1285926   0.5784775  -0.3090932), wk =   0.0039062
        k(   94) = (   0.1342588   0.5828673  -0.2267775), wk =   0.0039062
        k(   95) = (   0.1399251   0.5872571  -0.1444619), wk =   0.0039062
        k(   96) = (   0.1455914   0.5916470  -0.0621463), wk =   0.0039062
        k(   97) = (   0.0986521  -0.6300050  -0.0120359), wk =   0.0039062
        k(   98) = (   0.1043183  -0.6256152   0.0702798), wk =   0.0039062
        k(   99) = (   0.1099846  -0.6212253   0.1525954), wk =   0.0039062
        k(  100) = (   0.1156509  -0.6168355   0.2349110), wk =   0.0039062
        k(  101) = (   0.0759870  -0.6475644  -0.3412984), wk =   0.0039062
        k(  102) = (   0.0816533  -0.6431745  -0.2589827), wk =   0.0039062
        k(  103) = (   0.0873195  -0.6387847  -0.1766671), wk =   0.0039062
        k(  104) = (   0.0929858  -0.6343948  -0.0943515), wk =   0.0039062
        k(  105) = (   0.1061672  -0.4548562  -0.0074351), wk =   0.0039062
        k(  106) = (   0.1118334  -0.4504663   0.0748805), wk =   0.0039062
        k(  107) = (   0.1174997  -0.4460765   0.1571961), wk =   0.0039062
        k(  108) = (   0.1231660  -0.4416867   0.2395118), wk =   0.0039062
        k(  109) = (   0.0835021  -0.4724155  -0.3366976), wk =   0.0039062
        k(  110) = (   0.0891684  -0.4680257  -0.2543820), wk =   0.0039062
        k(  111) = (   0.0948346  -0.4636359  -0.1720664), wk =   0.0039062
        k(  112) = (   0.1005009  -0.4592460  -0.0897507), wk =   0.0039062
        k(  113) = (   0.1136822  -0.2797074  -0.0028344), wk =   0.0039062
        k(  114) = (   0.1193485  -0.2753175   0.0794813), wk =   0.0039062
        k(  115) = (   0.1250148  -0.2709277   0.1617969), wk =   0.0039062
        k(  116) = (   0.1306810  -0.2665378   0.2441125), wk =   0.0039062
        k(  117) = (   0.0910172  -0.2972667  -0.3320969), wk =   0.0039062
        k(  118) = (   0.0966834  -0.2928769  -0.2497813), wk =   0.0039062
        k(  119) = (   0.1023497  -0.2884870  -0.1674656), wk =   0.0039062
        k(  120) = (   0.1080160  -0.2840972  -0.0851500), wk =   0.0039062
        k(  121) = (   0.1211973  -0.1045585   0.0017664), wk =   0.0039062
        k(  122) = (   0.1268636  -0.1001687   0.0840820), wk =   0.0039062
        k(  123) = (   0.1325298  -0.0957789   0.1663976), wk =   0.0039062
        k(  124) = (   0.1381961  -0.0913890   0.2487133), wk =   0.0039062
        k(  125) = (   0.0985322  -0.1221179  -0.3274961), wk =   0.0039062
        k(  126) = (   0.1041985  -0.1177280  -0.2451805), wk =   0.0039062
        k(  127) = (   0.1098648  -0.1133382  -0.1628649), wk =   0.0039062
        k(  128) = (   0.1155310  -0.1089484  -0.0805493), wk =   0.0039062
        k(  129) = (   0.2574248   0.1411806   0.0127342), wk =   0.0039062
        k(  130) = (   0.2630910   0.1455704   0.0950499), wk =   0.0039062
        k(  131) = (   0.2687573   0.1499603   0.1773655), wk =   0.0039062
        k(  132) = (   0.2744236   0.1543501   0.2596811), wk =   0.0039062
        k(  133) = (   0.2347597   0.1236213  -0.3165283), wk =   0.0039062
        k(  134) = (   0.2404260   0.1280111  -0.2342127), wk =   0.0039062
        k(  135) = (   0.2460922   0.1324009  -0.1518970), wk =   0.0039062
        k(  136) = (   0.2517585   0.1367908  -0.0695814), wk =   0.0039062
        k(  137) = (   0.2649399   0.3163294   0.0173350), wk =   0.0039062
        k(  138) = (   0.2706061   0.3207193   0.0996506), wk =   0.0039062
        k(  139) = (   0.2762724   0.3251091   0.1819662), wk =   0.0039062
        k(  140) = (   0.2819387   0.3294989   0.2642819), wk =   0.0039062
        k(  141) = (   0.2422748   0.2987701  -0.3119275), wk =   0.0039062
        k(  142) = (   0.2479411   0.3031599  -0.2296119), wk =   0.0039062
        k(  143) = (   0.2536073   0.3075498  -0.1472963), wk =   0.0039062
        k(  144) = (   0.2592736   0.3119396  -0.0649807), wk =   0.0039062
        k(  145) = (   0.2724549   0.4914783   0.0219357), wk =   0.0039062
        k(  146) = (   0.2781212   0.4958681   0.1042513), wk =   0.0039062
        k(  147) = (   0.2837875   0.5002579   0.1865670), wk =   0.0039062
        k(  148) = (   0.2894537   0.5046478   0.2688826), wk =   0.0039062
        k(  149) = (   0.2497899   0.4739189  -0.3073268), wk =   0.0039062
        k(  150) = (   0.2554561   0.4783088  -0.2250112), wk =   0.0039062
        k(  151) = (   0.2611224   0.4826986  -0.1426955), wk =   0.0039062
        k(  152) = (   0.2667887   0.4870884  -0.0603799), wk =   0.0039062
        k(  153) = (   0.2799700   0.6666271   0.0265365), wk =   0.0039062
        k(  154) = (   0.2856363   0.6710169   0.1088521), wk =   0.0039062
        k(  155) = (   0.2913025   0.6754068   0.1911677), wk =   0.0039062
        k(  156) = (   0.2969688   0.6797966   0.2734833), wk =   0.0039062
        k(  157) = (   0.2573049   0.6490678  -0.3027261), wk =   0.0039062
        k(  158) = (   0.2629712   0.6534576  -0.2204104), wk =   0.0039062
        k(  159) = (   0.2686375   0.6578474  -0.1380948), wk =   0.0039062
        k(  160) = (   0.2743037   0.6622373  -0.0557792), wk =   0.0039062
        k(  161) = (   0.2273645  -0.5594147  -0.0056687), wk =   0.0039062
        k(  162) = (   0.2330307  -0.5550249   0.0766469), wk =   0.0039062
        k(  163) = (   0.2386970  -0.5506350   0.1589625), wk =   0.0039062
        k(  164) = (   0.2443633  -0.5462452   0.2412781), wk =   0.0039062
        k(  165) = (   0.2046994  -0.5769740  -0.3349313), wk =   0.0039062
        k(  166) = (   0.2103657  -0.5725842  -0.2526156), wk =   0.0039062
        k(  167) = (   0.2160319  -0.5681944  -0.1703000), wk =   0.0039062
        k(  168) = (   0.2216982  -0.5638045  -0.0879844), wk =   0.0039062
        k(  169) = (   0.2348795  -0.3842659  -0.0010680), wk =   0.0039062
        k(  170) = (   0.2405458  -0.3798760   0.0812476), wk =   0.0039062
        k(  171) = (   0.2462121  -0.3754862   0.1635633), wk =   0.0039062
        k(  172) = (   0.2518783  -0.3710964   0.2458789), wk =   0.0039062
        k(  173) = (   0.2122145  -0.4018252  -0.3303305), wk =   0.0039062
        k(  174) = (   0.2178807  -0.3974354  -0.2480149), wk =   0.0039062
        k(  175) = (   0.2235470  -0.3930455  -0.1656993), wk =   0.0039062
        k(  176) = (   0.2292133  -0.3886557  -0.0833836), wk =   0.0039062
        k(  177) = (   0.2423946  -0.2091170   0.0035327), wk =   0.0039062
        k(  178) = (   0.2480609  -0.2047272   0.0858484), wk =   0.0039062
        k(  179) = (   0.2537272  -0.2003374   0.1681640), wk =   0.0039062
        k(  180) = (   0.2593934  -0.1959475   0.2504796), wk =   0.0039062
        k(  181) = (   0.2197296  -0.2266764  -0.3257298), wk =   0.0039062
        k(  182) = (   0.2253958  -0.2222866  -0.2434141), wk =   0.0039062
        k(  183) = (   0.2310621  -0.2178967  -0.1610985), wk =   0.0039062
        k(  184) = (   0.2367284  -0.2135069  -0.0787829), wk =   0.0039062
        k(  185) = (   0.2499097  -0.0339682   0.0081335), wk =   0.0039062
        k(  186) = (   0.2555760  -0.0295784   0.0904491), wk =   0.0039062
        k(  187) = (   0.2612422  -0.0251885   0.1727647), wk =   0.0039062
        k(  188) = (   0.2669085  -0.0207987   0.2550804), wk =   0.0039062
        k(  189) = (   0.2272446  -0.0515276  -0.3211290), wk =   0.0039062
        k(  190) = (   0.2329109  -0.0471377  -0.2388134), wk =   0.0039062
        k(  191) = (   0.2385772  -0.0427479  -0.1564978), wk =   0.0039062
        k(  192) = (   0.2442434  -0.0383581  -0.0741821), wk =   0.0039062
        k(  193) = (   0.3861372   0.2117709   0.0191013), wk =   0.0039062
        k(  194) = (   0.3918034   0.2161608   0.1014170), wk =   0.0039062
        k(  195) = (   0.3974697   0.2205506   0.1837326), wk =   0.0039062
        k(  196) = (   0.4031360   0.2249404   0.2660482), wk =   0.0039062
        k(  197) = (   0.3634721   0.1942116  -0.3101612), wk =   0.0039062
        k(  198) = (   0.3691384   0.1986014  -0.2278455), wk =   0.0039062
        k(  199) = (   0.3748046   0.2029912  -0.1455299), wk =   0.0039062
        k(  200) = (   0.3804709   0.2073811  -0.0632143), wk =   0.0039062
        k(  201) = (   0.3936522   0.3869197   0.0237021), wk =   0.0039062
        k(  202) = (   0.3993185   0.3913096   0.1060177), wk =   0.0039062
        k(  203) = (   0.4049848   0.3956994   0.1883333), wk =   0.0039062
        k(  204) = (   0.4106510   0.4000893   0.2706490), wk =   0.0039062
        k(  205) = (   0.3709872   0.3693604  -0.3055604), wk =   0.0039062
        k(  206) = (   0.3766534   0.3737502  -0.2232448), wk =   0.0039062
        k(  207) = (   0.3823197   0.3781401  -0.1409292), wk =   0.0039062
        k(  208) = (   0.3879860   0.3825299  -0.0586135), wk =   0.0039062
        k(  209) = (   0.4011673   0.5620686   0.0283028), wk =   0.0039062
        k(  210) = (   0.4068336   0.5664584   0.1106184), wk =   0.0039062
        k(  211) = (   0.4124999   0.5708482   0.1929341), wk =   0.0039062
        k(  212) = (   0.4181661   0.5752381   0.2752497), wk =   0.0039062
        k(  213) = (   0.3785023   0.5445092  -0.3009597), wk =   0.0039062
        k(  214) = (   0.3841685   0.5488991  -0.2186441), wk =   0.0039062
        k(  215) = (   0.3898348   0.5532889  -0.1363284), wk =   0.0039062
        k(  216) = (   0.3955011   0.5576787  -0.0540128), wk =   0.0039062
        k(  217) = (   0.4086824   0.7372174   0.0329036), wk =   0.0039062
        k(  218) = (   0.4143487   0.7416072   0.1152192), wk =   0.0039062
        k(  219) = (   0.4200149   0.7459971   0.1975348), wk =   0.0039062
        k(  220) = (   0.4256812   0.7503869   0.2798504), wk =   0.0039062
        k(  221) = (   0.3860173   0.7196581  -0.2963589), wk =   0.0039062
        k(  222) = (   0.3916836   0.7240479  -0.2140433), wk =   0.0039062
        k(  223) = (   0.3973499   0.7284377  -0.1317277), wk =   0.0039062
        k(  224) = (   0.4030161   0.7328276  -0.0494121), wk =   0.0039062
        k(  225) = (   0.3560769  -0.4888244   0.0006984), wk =   0.0039062
        k(  226) = (   0.3617431  -0.4844346   0.0830140), wk =   0.0039062
        k(  227) = (   0.3674094  -0.4800447   0.1653296), wk =   0.0039062
        k(  228) = (   0.3730757  -0.4756549   0.2476453), wk =   0.0039062
        k(  229) = (   0.3334118  -0.5063837  -0.3285641), wk =   0.0039062
        k(  230) = (   0.3390781  -0.5019939  -0.2462485), wk =   0.0039062
        k(  231) = (   0.3447443  -0.4976041  -0.1639329), wk =   0.0039062
        k(  232) = (   0.3504106  -0.4932142  -0.0816173), wk =   0.0039062
        k(  233) = (   0.3635919  -0.3136756   0.0052991), wk =   0.0039062
        k(  234) = (   0.3692582  -0.3092857   0.0876147), wk =   0.0039062
        k(  235) = (   0.3749245  -0.3048959   0.1699304), wk =   0.0039062
        k(  236) = (   0.3805907  -0.3005061   0.2522460), wk =   0.0039062
        k(  237) = (   0.3409269  -0.3312349  -0.3239634), wk =   0.0039062
        k(  238) = (   0.3465931  -0.3268451  -0.2416478), wk =   0.0039062
        k(  239) = (   0.3522594  -0.3224552  -0.1593321), wk =   0.0039062
        k(  240) = (   0.3579257  -0.3180654  -0.0770165), wk =   0.0039062
        k(  241) = (   0.3711070  -0.1385267   0.0098999), wk =   0.0039062
        k(  242) = (   0.3767733  -0.1341369   0.0922155), wk =   0.0039062
        k(  243) = (   0.3824395  -0.1297471   0.1745311), wk =   0.0039062
        k(  244) = (   0.3881058  -0.1253572   0.2568467), wk =   0.0039062
        k(  245) = (   0.3484419  -0.1560861  -0.3193627), wk =   0.0039062
        k(  246) = (   0.3541082  -0.1516962  -0.2370470), wk =   0.0039062
        k(  247) = (   0.3597745  -0.1473064  -0.1547314), wk =   0.0039062
        k(  248) = (   0.3654407  -0.1429166  -0.0724158), wk =   0.0039062
        k(  249) = (   0.3786221   0.0366221   0.0145006), wk =   0.0039062
        k(  250) = (   0.3842884   0.0410119   0.0968162), wk =   0.0039062
        k(  251) = (   0.3899546   0.0454018   0.1791319), wk =   0.0039062
        k(  252) = (   0.3956209   0.0497916   0.2614475), wk =   0.0039062
        k(  253) = (   0.3559570   0.0190627  -0.3147619), wk =   0.0039062
        k(  254) = (   0.3616233   0.0234526  -0.2324463), wk =   0.0039062
        k(  255) = (   0.3672896   0.0278424  -0.1501307), wk =   0.0039062
        k(  256) = (   0.3729558   0.0322323  -0.0678150), wk =   0.0039062
        k(  257) = (  -0.5148496  -0.2823612  -0.0254684), wk =   0.0039062
        k(  258) = (  -0.5091833  -0.2779714   0.0568472), wk =   0.0039062
        k(  259) = (  -0.5035170  -0.2735816   0.1391628), wk =   0.0039062
        k(  260) = (  -0.4978508  -0.2691917   0.2214784), wk =   0.0039062
        k(  261) = (  -0.5375146  -0.2999206  -0.3547310), wk =   0.0039062
        k(  262) = (  -0.5318484  -0.2955307  -0.2724153), wk =   0.0039062
        k(  263) = (  -0.5261821  -0.2911409  -0.1900997), wk =   0.0039062
        k(  264) = (  -0.5205158  -0.2867511  -0.1077841), wk =   0.0039062
        k(  265) = (  -0.5073345  -0.1072124  -0.0208677), wk =   0.0039062
        k(  266) = (  -0.5016682  -0.1028226   0.0614479), wk =   0.0039062
        k(  267) = (  -0.4960020  -0.0984327   0.1437635), wk =   0.0039062
        k(  268) = (  -0.4903357  -0.0940429   0.2260792), wk =   0.0039062
        k(  269) = (  -0.5299995  -0.1247717  -0.3501302), wk =   0.0039062
        k(  270) = (  -0.5243333  -0.1203819  -0.2678146), wk =   0.0039062
        k(  271) = (  -0.5186670  -0.1159921  -0.1854990), wk =   0.0039062
        k(  272) = (  -0.5130007  -0.1116022  -0.1031833), wk =   0.0039062
        k(  273) = (  -0.4998194   0.0679364  -0.0162670), wk =   0.0039062
        k(  274) = (  -0.4941531   0.0723263   0.0660487), wk =   0.0039062
        k(  275) = (  -0.4884869   0.0767161   0.1483643), wk =   0.0039062
        k(  276) = (  -0.4828206   0.0811059   0.2306799), wk =   0.0039062
        k(  277) = (  -0.5224845   0.0503771  -0.3455295), wk =   0.0039062
        k(  278) = (  -0.5168182   0.0547669  -0.2632138), wk =   0.0039062
        k(  279) = (  -0.5111519   0.0591568  -0.1808982), wk =   0.0039062
        k(  280) = (  -0.5054857   0.0635466  -0.0985826), wk =   0.0039062
        k(  281) = (  -0.4923043   0.2430853  -0.0116662), wk =   0.0039062
        k(  282) = (  -0.4866381   0.2474751   0.0706494), wk =   0.0039062
        k(  283) = (  -0.4809718   0.2518649   0.1529650), wk =   0.0039062
        k(  284) = (  -0.4753055   0.2562548   0.2352807), wk =   0.0039062
        k(  285) = (  -0.5149694   0.2255259  -0.3409287), wk =   0.0039062
        k(  286) = (  -0.5093031   0.2299158  -0.2586131), wk =   0.0039062
        k(  287) = (  -0.5036369   0.2343056  -0.1762975), wk =   0.0039062
        k(  288) = (  -0.4979706   0.2386954  -0.0939819), wk =   0.0039062
        k(  289) = (  -0.5449099  -0.9829565  -0.0438714), wk =   0.0039062
        k(  290) = (  -0.5392436  -0.9785667   0.0384442), wk =   0.0039062
        k(  291) = (  -0.5335773  -0.9741769   0.1207598), wk =   0.0039062
        k(  292) = (  -0.5279111  -0.9697870   0.2030755), wk =   0.0039062
        k(  293) = (  -0.5675749  -1.0005159  -0.3731339), wk =   0.0039062
        k(  294) = (  -0.5619087  -0.9961260  -0.2908183), wk =   0.0039062
        k(  295) = (  -0.5562424  -0.9917362  -0.2085027), wk =   0.0039062
        k(  296) = (  -0.5505761  -0.9873464  -0.1261870), wk =   0.0039062
        k(  297) = (  -0.5373948  -0.8078077  -0.0392707), wk =   0.0039062
        k(  298) = (  -0.5317285  -0.8034179   0.0430450), wk =   0.0039062
        k(  299) = (  -0.5260623  -0.7990280   0.1253606), wk =   0.0039062
        k(  300) = (  -0.5203960  -0.7946382   0.2076762), wk =   0.0039062
        k(  301) = (  -0.5600599  -0.8253671  -0.3685332), wk =   0.0039062
        k(  302) = (  -0.5543936  -0.8209772  -0.2862176), wk =   0.0039062
        k(  303) = (  -0.5487273  -0.8165874  -0.2039019), wk =   0.0039062
        k(  304) = (  -0.5430611  -0.8121975  -0.1215863), wk =   0.0039062
        k(  305) = (  -0.5298797  -0.6326589  -0.0346699), wk =   0.0039062
        k(  306) = (  -0.5242135  -0.6282690   0.0476457), wk =   0.0039062
        k(  307) = (  -0.5185472  -0.6238792   0.1299613), wk =   0.0039062
        k(  308) = (  -0.5128809  -0.6194894   0.2122770), wk =   0.0039062
        k(  309) = (  -0.5525448  -0.6502182  -0.3639324), wk =   0.0039062
        k(  310) = (  -0.5468785  -0.6458284  -0.2816168), wk =   0.0039062
        k(  311) = (  -0.5412122  -0.6414386  -0.1993012), wk =   0.0039062
        k(  312) = (  -0.5355460  -0.6370487  -0.1169856), wk =   0.0039062
        k(  313) = (  -0.5223646  -0.4575101  -0.0300692), wk =   0.0039062
        k(  314) = (  -0.5166984  -0.4531202   0.0522464), wk =   0.0039062
        k(  315) = (  -0.5110321  -0.4487304   0.1345621), wk =   0.0039062
        k(  316) = (  -0.5053658  -0.4443405   0.2168777), wk =   0.0039062
        k(  317) = (  -0.5450297  -0.4750694  -0.3593317), wk =   0.0039062
        k(  318) = (  -0.5393634  -0.4706796  -0.2770161), wk =   0.0039062
        k(  319) = (  -0.5336972  -0.4662897  -0.1947004), wk =   0.0039062
        k(  320) = (  -0.5280309  -0.4618999  -0.1123848), wk =   0.0039062
        k(  321) = (  -0.3861372  -0.2117709  -0.0191013), wk =   0.0039062
        k(  322) = (  -0.3804709  -0.2073811   0.0632143), wk =   0.0039062
        k(  323) = (  -0.3748046  -0.2029912   0.1455299), wk =   0.0039062
        k(  324) = (  -0.3691384  -0.1986014   0.2278455), wk =   0.0039062
        k(  325) = (  -0.4088022  -0.2293303  -0.3483638), wk =   0.0039062
        k(  326) = (  -0.4031360  -0.2249404  -0.2660482), wk =   0.0039062
        k(  327) = (  -0.3974697  -0.2205506  -0.1837326), wk =   0.0039062
        k(  328) = (  -0.3918034  -0.2161608  -0.1014170), wk =   0.0039062
        k(  329) = (  -0.3786221  -0.0366221  -0.0145006), wk =   0.0039062
        k(  330) = (  -0.3729558  -0.0322323   0.0678150), wk =   0.0039062
        k(  331) = (  -0.3672896  -0.0278424   0.1501307), wk =   0.0039062
        k(  332) = (  -0.3616233  -0.0234526   0.2324463), wk =   0.0039062
        k(  333) = (  -0.4012872  -0.0541814  -0.3437631), wk =   0.0039062
        k(  334) = (  -0.3956209  -0.0497916  -0.2614475), wk =   0.0039062
        k(  335) = (  -0.3899546  -0.0454018  -0.1791319), wk =   0.0039062
        k(  336) = (  -0.3842884  -0.0410119  -0.0968162), wk =   0.0039062
        k(  337) = (  -0.3711070   0.1385267  -0.0098999), wk =   0.0039062
        k(  338) = (  -0.3654407   0.1429166   0.0724158), wk =   0.0039062
        k(  339) = (  -0.3597745   0.1473064   0.1547314), wk =   0.0039062
        k(  340) = (  -0.3541082   0.1516962   0.2370470), wk =   0.0039062
        k(  341) = (  -0.3937721   0.1209674  -0.3391624), wk =   0.0039062
        k(  342) = (  -0.3881058   0.1253572  -0.2568467), wk =   0.0039062
        k(  343) = (  -0.3824395   0.1297471  -0.1745311), wk =   0.0039062
        k(  344) = (  -0.3767733   0.1341369  -0.0922155), wk =   0.0039062
        k(  345) = (  -0.3635919   0.3136756  -0.0052991), wk =   0.0039062
        k(  346) = (  -0.3579257   0.3180654   0.0770165), wk =   0.0039062
        k(  347) = (  -0.3522594   0.3224552   0.1593321), wk =   0.0039062
        k(  348) = (  -0.3465931   0.3268451   0.2416478), wk =   0.0039062
        k(  349) = (  -0.3862570   0.2961162  -0.3345616), wk =   0.0039062
        k(  350) = (  -0.3805907   0.3005061  -0.2522460), wk =   0.0039062
        k(  351) = (  -0.3749245   0.3048959  -0.1699304), wk =   0.0039062
        k(  352) = (  -0.3692582   0.3092857  -0.0876147), wk =   0.0039062
        k(  353) = (  -0.4161975  -0.9123662  -0.0375043), wk =   0.0039062
        k(  354) = (  -0.4105312  -0.9079764   0.0448113), wk =   0.0039062
        k(  355) = (  -0.4048650  -0.9035866   0.1271270), wk =   0.0039062
        k(  356) = (  -0.3991987  -0.8991967   0.2094426), wk =   0.0039062
        k(  357) = (  -0.4388625  -0.9299256  -0.3667668), wk =   0.0039062
        k(  358) = (  -0.4331963  -0.9255357  -0.2844512), wk =   0.0039062
        k(  359) = (  -0.4275300  -0.9211459  -0.2021356), wk =   0.0039062
        k(  360) = (  -0.4218637  -0.9167561  -0.1198199), wk =   0.0039062
        k(  361) = (  -0.4086824  -0.7372174  -0.0329036), wk =   0.0039062
        k(  362) = (  -0.4030161  -0.7328276   0.0494121), wk =   0.0039062
        k(  363) = (  -0.3973499  -0.7284377   0.1317277), wk =   0.0039062
        k(  364) = (  -0.3916836  -0.7240479   0.2140433), wk =   0.0039062
        k(  365) = (  -0.4313475  -0.7547767  -0.3621661), wk =   0.0039062
        k(  366) = (  -0.4256812  -0.7503869  -0.2798504), wk =   0.0039062
        k(  367) = (  -0.4200149  -0.7459971  -0.1975348), wk =   0.0039062
        k(  368) = (  -0.4143487  -0.7416072  -0.1152192), wk =   0.0039062
        k(  369) = (  -0.4011673  -0.5620686  -0.0283028), wk =   0.0039062
        k(  370) = (  -0.3955011  -0.5576787   0.0540128), wk =   0.0039062
        k(  371) = (  -0.3898348  -0.5532889   0.1363284), wk =   0.0039062
        k(  372) = (  -0.3841685  -0.5488991   0.2186441), wk =   0.0039062
        k(  373) = (  -0.4238324  -0.5796279  -0.3575653), wk =   0.0039062
        k(  374) = (  -0.4181661  -0.5752381  -0.2752497), wk =   0.0039062
        k(  375) = (  -0.4124999  -0.5708482  -0.1929341), wk =   0.0039062
        k(  376) = (  -0.4068336  -0.5664584  -0.1106184), wk =   0.0039062
        k(  377) = (  -0.3936522  -0.3869197  -0.0237021), wk =   0.0039062
        k(  378) = (  -0.3879860  -0.3825299   0.0586135), wk =   0.0039062
        k(  379) = (  -0.3823197  -0.3781401   0.1409292), wk =   0.0039062
        k(  380) = (  -0.3766534  -0.3737502   0.2232448), wk =   0.0039062
        k(  381) = (  -0.4163173  -0.4044791  -0.3529646), wk =   0.0039062
        k(  382) = (  -0.4106510  -0.4000893  -0.2706490), wk =   0.0039062
        k(  383) = (  -0.4049848  -0.3956994  -0.1883333), wk =   0.0039062
        k(  384) = (  -0.3993185  -0.3913096  -0.1060177), wk =   0.0039062
        k(  385) = (  -0.2574248  -0.1411806  -0.0127342), wk =   0.0039062
        k(  386) = (  -0.2517585  -0.1367908   0.0695814), wk =   0.0039062
        k(  387) = (  -0.2460922  -0.1324009   0.1518970), wk =   0.0039062
        k(  388) = (  -0.2404260  -0.1280111   0.2342127), wk =   0.0039062
        k(  389) = (  -0.2800898  -0.1587400  -0.3419967), wk =   0.0039062
        k(  390) = (  -0.2744236  -0.1543501  -0.2596811), wk =   0.0039062
        k(  391) = (  -0.2687573  -0.1499603  -0.1773655), wk =   0.0039062
        k(  392) = (  -0.2630910  -0.1455704  -0.0950499), wk =   0.0039062
        k(  393) = (  -0.2499097   0.0339682  -0.0081335), wk =   0.0039062
        k(  394) = (  -0.2442434   0.0383581   0.0741821), wk =   0.0039062
        k(  395) = (  -0.2385772   0.0427479   0.1564978), wk =   0.0039062
        k(  396) = (  -0.2329109   0.0471377   0.2388134), wk =   0.0039062
        k(  397) = (  -0.2725748   0.0164089  -0.3373960), wk =   0.0039062
        k(  398) = (  -0.2669085   0.0207987  -0.2550804), wk =   0.0039062
        k(  399) = (  -0.2612422   0.0251885  -0.1727647), wk =   0.0039062
        k(  400) = (  -0.2555760   0.0295784  -0.0904491), wk =   0.0039062
        k(  401) = (  -0.2423946   0.2091170  -0.0035327), wk =   0.0039062
        k(  402) = (  -0.2367284   0.2135069   0.0787829), wk =   0.0039062
        k(  403) = (  -0.2310621   0.2178967   0.1610985), wk =   0.0039062
        k(  404) = (  -0.2253958   0.2222866   0.2434141), wk =   0.0039062
        k(  405) = (  -0.2650597   0.1915577  -0.3327953), wk =   0.0039062
        k(  406) = (  -0.2593934   0.1959475  -0.2504796), wk =   0.0039062
        k(  407) = (  -0.2537272   0.2003374  -0.1681640), wk =   0.0039062
        k(  408) = (  -0.2480609   0.2047272  -0.0858484), wk =   0.0039062
        k(  409) = (  -0.2348795   0.3842659   0.0010680), wk =   0.0039062
        k(  410) = (  -0.2292133   0.3886557   0.0833836), wk =   0.0039062
        k(  411) = (  -0.2235470   0.3930455   0.1656993), wk =   0.0039062
        k(  412) = (  -0.2178807   0.3974354   0.2480149), wk =   0.0039062
        k(  413) = (  -0.2575446   0.3667065  -0.3281945), wk =   0.0039062
        k(  414) = (  -0.2518783   0.3710964  -0.2458789), wk =   0.0039062
        k(  415) = (  -0.2462121   0.3754862  -0.1635633), wk =   0.0039062
        k(  416) = (  -0.2405458   0.3798760  -0.0812476), wk =   0.0039062
        k(  417) = (  -0.2874851  -0.8417759  -0.0311372), wk =   0.0039062
        k(  418) = (  -0.2818188  -0.8373861   0.0511784), wk =   0.0039062
        k(  419) = (  -0.2761526  -0.8329963   0.1334941), wk =   0.0039062
        k(  420) = (  -0.2704863  -0.8286064   0.2158097), wk =   0.0039062
        k(  421) = (  -0.3101502  -0.8593353  -0.3603997), wk =   0.0039062
        k(  422) = (  -0.3044839  -0.8549454  -0.2780841), wk =   0.0039062
        k(  423) = (  -0.2988176  -0.8505556  -0.1957684), wk =   0.0039062
        k(  424) = (  -0.2931514  -0.8461658  -0.1134528), wk =   0.0039062
        k(  425) = (  -0.2799700  -0.6666271  -0.0265365), wk =   0.0039062
        k(  426) = (  -0.2743037  -0.6622373   0.0557792), wk =   0.0039062
        k(  427) = (  -0.2686375  -0.6578474   0.1380948), wk =   0.0039062
        k(  428) = (  -0.2629712  -0.6534576   0.2204104), wk =   0.0039062
        k(  429) = (  -0.3026351  -0.6841864  -0.3557990), wk =   0.0039062
        k(  430) = (  -0.2969688  -0.6797966  -0.2734833), wk =   0.0039062
        k(  431) = (  -0.2913025  -0.6754068  -0.1911677), wk =   0.0039062
        k(  432) = (  -0.2856363  -0.6710169  -0.1088521), wk =   0.0039062
        k(  433) = (  -0.2724549  -0.4914783  -0.0219357), wk =   0.0039062
        k(  434) = (  -0.2667887  -0.4870884   0.0603799), wk =   0.0039062
        k(  435) = (  -0.2611224  -0.4826986   0.1426955), wk =   0.0039062
        k(  436) = (  -0.2554561  -0.4783088   0.2250112), wk =   0.0039062
        k(  437) = (  -0.2951200  -0.5090376  -0.3511982), wk =   0.0039062
        k(  438) = (  -0.2894537  -0.5046478  -0.2688826), wk =   0.0039062
        k(  439) = (  -0.2837875  -0.5002579  -0.1865670), wk =   0.0039062
        k(  440) = (  -0.2781212  -0.4958681  -0.1042513), wk =   0.0039062
        k(  441) = (  -0.2649399  -0.3163294  -0.0173350), wk =   0.0039062
        k(  442) = (  -0.2592736  -0.3119396   0.0649807), wk =   0.0039062
        k(  443) = (  -0.2536073  -0.3075498   0.1472963), wk =   0.0039062
        k(  444) = (  -0.2479411  -0.3031599   0.2296119), wk =   0.0039062
        k(  445) = (  -0.2876049  -0.3338888  -0.3465975), wk =   0.0039062
        k(  446) = (  -0.2819387  -0.3294989  -0.2642819), wk =   0.0039062
        k(  447) = (  -0.2762724  -0.3251091  -0.1819662), wk =   0.0039062
        k(  448) = (  -0.2706061  -0.3207193  -0.0996506), wk =   0.0039062
        k(  449) = (  -0.1287124  -0.0705903  -0.0063671), wk =   0.0039062
        k(  450) = (  -0.1230461  -0.0662005   0.0759485), wk =   0.0039062
        k(  451) = (  -0.1173799  -0.0618106   0.1582641), wk =   0.0039062
        k(  452) = (  -0.1117136  -0.0574208   0.2405798), wk =   0.0039062
        k(  453) = (  -0.1513775  -0.0881496  -0.3356296), wk =   0.0039062
        k(  454) = (  -0.1457112  -0.0837598  -0.2533140), wk =   0.0039062
        k(  455) = (  -0.1400449  -0.0793700  -0.1709984), wk =   0.0039062
        k(  456) = (  -0.1343787  -0.0749801  -0.0886827), wk =   0.0039062
        k(  457) = (  -0.1211973   0.1045585  -0.0017664), wk =   0.0039062
        k(  458) = (  -0.1155310   0.1089484   0.0805493), wk =   0.0039062
        k(  459) = (  -0.1098648   0.1133382   0.1628649), wk =   0.0039062
        k(  460) = (  -0.1041985   0.1177280   0.2451805), wk =   0.0039062
        k(  461) = (  -0.1438624   0.0869992  -0.3310289), wk =   0.0039062
        k(  462) = (  -0.1381961   0.0913890  -0.2487133), wk =   0.0039062
        k(  463) = (  -0.1325298   0.0957789  -0.1663976), wk =   0.0039062
        k(  464) = (  -0.1268636   0.1001687  -0.0840820), wk =   0.0039062
        k(  465) = (  -0.1136822   0.2797074   0.0028344), wk =   0.0039062
        k(  466) = (  -0.1080160   0.2840972   0.0851500), wk =   0.0039062
        k(  467) = (  -0.1023497   0.2884870   0.1674656), wk =   0.0039062
        k(  468) = (  -0.0966834   0.2928769   0.2497813), wk =   0.0039062
        k(  469) = (  -0.1363473   0.2621480  -0.3264281), wk =   0.0039062
        k(  470) = (  -0.1306810   0.2665378  -0.2441125), wk =   0.0039062
        k(  471) = (  -0.1250148   0.2709277  -0.1617969), wk =   0.0039062
        k(  472) = (  -0.1193485   0.2753175  -0.0794813), wk =   0.0039062
        k(  473) = (  -0.1061672   0.4548562   0.0074351), wk =   0.0039062
        k(  474) = (  -0.1005009   0.4592460   0.0897507), wk =   0.0039062
        k(  475) = (  -0.0948346   0.4636359   0.1720664), wk =   0.0039062
        k(  476) = (  -0.0891684   0.4680257   0.2543820), wk =   0.0039062
        k(  477) = (  -0.1288322   0.4372968  -0.3218274), wk =   0.0039062
        k(  478) = (  -0.1231660   0.4416867  -0.2395118), wk =   0.0039062
        k(  479) = (  -0.1174997   0.4460765  -0.1571961), wk =   0.0039062
        k(  480) = (  -0.1118334   0.4504663  -0.0748805), wk =   0.0039062
        k(  481) = (  -0.1587727  -0.7711856  -0.0247701), wk =   0.0039062
        k(  482) = (  -0.1531064  -0.7667958   0.0575455), wk =   0.0039062
        k(  483) = (  -0.1474402  -0.7624060   0.1398612), wk =   0.0039062
        k(  484) = (  -0.1417739  -0.7580161   0.2221768), wk =   0.0039062
        k(  485) = (  -0.1814378  -0.7887450  -0.3540326), wk =   0.0039062
        k(  486) = (  -0.1757715  -0.7843551  -0.2717170), wk =   0.0039062
        k(  487) = (  -0.1701052  -0.7799653  -0.1894013), wk =   0.0039062
        k(  488) = (  -0.1644390  -0.7755755  -0.1070857), wk =   0.0039062
        k(  489) = (  -0.1512576  -0.5960368  -0.0201693), wk =   0.0039062
        k(  490) = (  -0.1455914  -0.5916470   0.0621463), wk =   0.0039062
        k(  491) = (  -0.1399251  -0.5872571   0.1444619), wk =   0.0039062
        k(  492) = (  -0.1342588  -0.5828673   0.2267775), wk =   0.0039062
        k(  493) = (  -0.1739227  -0.6135961  -0.3494319), wk =   0.0039062
        k(  494) = (  -0.1682564  -0.6092063  -0.2671162), wk =   0.0039062
        k(  495) = (  -0.1625902  -0.6048165  -0.1848006), wk =   0.0039062
        k(  496) = (  -0.1569239  -0.6004266  -0.1024850), wk =   0.0039062
        k(  497) = (  -0.1437425  -0.4208880  -0.0155686), wk =   0.0039062
        k(  498) = (  -0.1380763  -0.4164981   0.0667470), wk =   0.0039062
        k(  499) = (  -0.1324100  -0.4121083   0.1490627), wk =   0.0039062
        k(  500) = (  -0.1267437  -0.4077185   0.2313783), wk =   0.0039062
        k(  501) = (  -0.1664076  -0.4384473  -0.3448311), wk =   0.0039062
        k(  502) = (  -0.1607413  -0.4340575  -0.2625155), wk =   0.0039062
        k(  503) = (  -0.1550751  -0.4296676  -0.1801999), wk =   0.0039062
        k(  504) = (  -0.1494088  -0.4252778  -0.0978842), wk =   0.0039062
        k(  505) = (  -0.1362275  -0.2457391  -0.0109679), wk =   0.0039062
        k(  506) = (  -0.1305612  -0.2413493   0.0713478), wk =   0.0039062
        k(  507) = (  -0.1248949  -0.2369595   0.1536634), wk =   0.0039062
        k(  508) = (  -0.1192287  -0.2325696   0.2359790), wk =   0.0039062
        k(  509) = (  -0.1588925  -0.2632985  -0.3402304), wk =   0.0039062
        k(  510) = (  -0.1532263  -0.2589086  -0.2579147), wk =   0.0039062
        k(  511) = (  -0.1475600  -0.2545188  -0.1755991), wk =   0.0039062
        k(  512) = (  -0.1418937  -0.2501290  -0.0932835), wk =   0.0039062

                       cryst. coord.
        k(    1) = (   0.0000000   0.0000000   0.0000000), wk =   0.0039062
        k(    2) = (  -0.0000000   0.0000000   0.1250000), wk =   0.0039062
        k(    3) = (  -0.0000000   0.0000000   0.2500000), wk =   0.0039062
        k(    4) = (  -0.0000000   0.0000000   0.3750000), wk =   0.0039062
        k(    5) = (   0.0000000  -0.0000000  -0.5000000), wk =   0.0039062
        k(    6) = (   0.0000000  -0.0000000  -0.3750000), wk =   0.0039062
        k(    7) = (   0.0000000  -0.0000000  -0.2500000), wk =   0.0039062
        k(    8) = (   0.0000000  -0.0000000  -0.1250000), wk =   0.0039062
        k(    9) = (   0.0000000   0.1250000   0.0000000), wk =   0.0039062
        k(   10) = (   0.0000000   0.1250000   0.1250000), wk =   0.0039062
        k(   11) = (  -0.0000000   0.1250000   0.2500000), wk =   0.0039062
        k(   12) = (  -0.0000000   0.1250000   0.3750000), wk =   0.0039062
        k(   13) = (   0.0000000   0.1250000  -0.5000000), wk =   0.0039062
        k(   14) = (   0.0000000   0.1250000  -0.3750000), wk =   0.0039062
        k(   15) = (   0.0000000   0.1250000  -0.2500000), wk =   0.0039062
        k(   16) = (   0.0000000   0.1250000  -0.1250000), wk =   0.0039062
        k(   17) = (   0.0000000   0.2500000   0.0000000), wk =   0.0039062
        k(   18) = (   0.0000000   0.2500000   0.1250000), wk =   0.0039062
        k(   19) = (   0.0000000   0.2500000   0.2500000), wk =   0.0039062
        k(   20) = (  -0.0000000   0.2500000   0.3750000), wk =   0.0039062
        k(   21) = (   0.0000000   0.2500000  -0.5000000), wk =   0.0039062
        k(   22) = (   0.0000000   0.2500000  -0.3750000), wk =   0.0039062
        k(   23) = (   0.0000000   0.2500000  -0.2500000), wk =   0.0039062
        k(   24) = (   0.0000000   0.2500000  -0.1250000), wk =   0.0039062
        k(   25) = (   0.0000000   0.3750000   0.0000000), wk =   0.0039062
        k(   26) = (  -0.0000000   0.3750000   0.1250000), wk =   0.0039062
        k(   27) = (  -0.0000000   0.3750000   0.2500000), wk =   0.0039062
        k(   28) = (   0.0000000   0.3750000   0.3750000), wk =   0.0039062
        k(   29) = (   0.0000000   0.3750000  -0.5000000), wk =   0.0039062
        k(   30) = (   0.0000000   0.3750000  -0.3750000), wk =   0.0039062
        k(   31) = (   0.0000000   0.3750000  -0.2500000), wk =   0.0039062
        k(   32) = (   0.0000000   0.3750000  -0.1250000), wk =   0.0039062
        k(   33) = (  -0.0000000  -0.5000000   0.0000000), wk =   0.0039062
        k(   34) = (  -0.0000000  -0.5000000   0.1250000), wk =   0.0039062
        k(   35) = (  -0.0000000  -0.5000000   0.2500000), wk =   0.0039062
        k(   36) = (  -0.0000000  -0.5000000   0.3750000), wk =   0.0039062
        k(   37) = (  -0.0000000  -0.5000000  -0.5000000), wk =   0.0039062
        k(   38) = (   0.0000000  -0.5000000  -0.3750000), wk =   0.0039062
        k(   39) = (  -0.0000000  -0.5000000  -0.2500000), wk =   0.0039062
        k(   40) = (   0.0000000  -0.5000000  -0.1250000), wk =   0.0039062
        k(   41) = (  -0.0000000  -0.3750000   0.0000000), wk =   0.0039062
        k(   42) = (  -0.0000000  -0.3750000   0.1250000), wk =   0.0039062
        k(   43) = (   0.0000000  -0.3750000   0.2500000), wk =   0.0039062
        k(   44) = (  -0.0000000  -0.3750000   0.3750000), wk =   0.0039062
        k(   45) = (   0.0000000  -0.3750000  -0.5000000), wk =   0.0039062
        k(   46) = (   0.0000000  -0.3750000  -0.3750000), wk =   0.0039062
        k(   47) = (   0.0000000  -0.3750000  -0.2500000), wk =   0.0039062
        k(   48) = (   0.0000000  -0.3750000  -0.1250000), wk =   0.0039062
        k(   49) = (  -0.0000000  -0.2500000   0.0000000), wk =   0.0039062
        k(   50) = (  -0.0000000  -0.2500000   0.1250000), wk =   0.0039062
        k(   51) = (  -0.0000000  -0.2500000   0.2500000), wk =   0.0039062
        k(   52) = (  -0.0000000  -0.2500000   0.3750000), wk =   0.0039062
        k(   53) = (   0.0000000  -0.2500000  -0.5000000), wk =   0.0039062
        k(   54) = (   0.0000000  -0.2500000  -0.3750000), wk =   0.0039062
        k(   55) = (  -0.0000000  -0.2500000  -0.2500000), wk =   0.0039062
        k(   56) = (  -0.0000000  -0.2500000  -0.1250000), wk =   0.0039062
        k(   57) = (  -0.0000000  -0.1250000   0.0000000), wk =   0.0039062
        k(   58) = (  -0.0000000  -0.1250000   0.1250000), wk =   0.0039062
        k(   59) = (  -0.0000000  -0.1250000   0.2500000), wk =   0.0039062
        k(   60) = (  -0.0000000  -0.1250000   0.3750000), wk =   0.0039062
        k(   61) = (   0.0000000  -0.1250000  -0.5000000), wk =   0.0039062
        k(   62) = (   0.0000000  -0.1250000  -0.3750000), wk =   0.0039062
        k(   63) = (   0.0000000  -0.1250000  -0.2500000), wk =   0.0039062
        k(   64) = (  -0.0000000  -0.1250000  -0.1250000), wk =   0.0039062
        k(   65) = (   0.1250000   0.0000000   0.0000000), wk =   0.0039062
        k(   66) = (   0.1250000   0.0000000   0.1250000), wk =   0.0039062
        k(   67) = (   0.1250000   0.0000000   0.2500000), wk =   0.0039062
        k(   68) = (   0.1250000   0.0000000   0.3750000), wk =   0.0039062
        k(   69) = (   0.1250000   0.0000000  -0.5000000), wk =   0.0039062
        k(   70) = (   0.1250000   0.0000000  -0.3750000), wk =   0.0039062
        k(   71) = (   0.1250000   0.0000000  -0.2500000), wk =   0.0039062
        k(   72) = (   0.1250000   0.0000000  -0.1250000), wk =   0.0039062
        k(   73) = (   0.1250000   0.1250000   0.0000000), wk =   0.0039062
        k(   74) = (   0.1250000   0.1250000   0.1250000), wk =   0.0039062
        k(   75) = (   0.1250000   0.1250000   0.2500000), wk =   0.0039062
        k(   76) = (   0.1250000   0.1250000   0.3750000), wk =   0.0039062
        k(   77) = (   0.1250000   0.1250000  -0.5000000), wk =   0.0039062
        k(   78) = (   0.1250000   0.1250000  -0.3750000), wk =   0.0039062
        k(   79) = (   0.1250000   0.1250000  -0.2500000), wk =   0.0039062
        k(   80) = (   0.1250000   0.1250000  -0.1250000), wk =   0.0039062
        k(   81) = (   0.1250000   0.2500000   0.0000000), wk =   0.0039062
        k(   82) = (   0.1250000   0.2500000   0.1250000), wk =   0.0039062
        k(   83) = (   0.1250000   0.2500000   0.2500000), wk =   0.0039062
        k(   84) = (   0.1250000   0.2500000   0.3750000), wk =   0.0039062
        k(   85) = (   0.1250000   0.2500000  -0.5000000), wk =   0.0039062
        k(   86) = (   0.1250000   0.2500000  -0.3750000), wk =   0.0039062
        k(   87) = (   0.1250000   0.2500000  -0.2500000), wk =   0.0039062
        k(   88) = (   0.1250000   0.2500000  -0.1250000), wk =   0.0039062
        k(   89) = (   0.1250000   0.3750000   0.0000000), wk =   0.0039062
        k(   90) = (   0.1250000   0.3750000   0.1250000), wk =   0.0039062
        k(   91) = (   0.1250000   0.3750000   0.2500000), wk =   0.0039062
        k(   92) = (   0.1250000   0.3750000   0.3750000), wk =   0.0039062
        k(   93) = (   0.1250000   0.3750000  -0.5000000), wk =   0.0039062
        k(   94) = (   0.1250000   0.3750000  -0.3750000), wk =   0.0039062
        k(   95) = (   0.1250000   0.3750000  -0.2500000), wk =   0.0039062
        k(   96) = (   0.1250000   0.3750000  -0.1250000), wk =   0.0039062
        k(   97) = (   0.1250000  -0.5000000   0.0000000), wk =   0.0039062
        k(   98) = (   0.1250000  -0.5000000   0.1250000), wk =   0.0039062
        k(   99) = (   0.1250000  -0.5000000   0.2500000), wk =   0.0039062
        k(  100) = (   0.1250000  -0.5000000   0.3750000), wk =   0.0039062
        k(  101) = (   0.1250000  -0.5000000  -0.5000000), wk =   0.0039062
        k(  102) = (   0.1250000  -0.5000000  -0.3750000), wk =   0.0039062
        k(  103) = (   0.1250000  -0.5000000  -0.2500000), wk =   0.0039062
        k(  104) = (   0.1250000  -0.5000000  -0.1250000), wk =   0.0039062
        k(  105) = (   0.1250000  -0.3750000   0.0000000), wk =   0.0039062
        k(  106) = (   0.1250000  -0.3750000   0.1250000), wk =   0.0039062
        k(  107) = (   0.1250000  -0.3750000   0.2500000), wk =   0.0039062
        k(  108) = (   0.1250000  -0.3750000   0.3750000), wk =   0.0039062
        k(  109) = (   0.1250000  -0.3750000  -0.5000000), wk =   0.0039062
        k(  110) = (   0.1250000  -0.3750000  -0.3750000), wk =   0.0039062
        k(  111) = (   0.1250000  -0.3750000  -0.2500000), wk =   0.0039062
        k(  112) = (   0.1250000  -0.3750000  -0.1250000), wk =   0.0039062
        k(  113) = (   0.1250000  -0.2500000   0.0000000), wk =   0.0039062
        k(  114) = (   0.1250000  -0.2500000   0.1250000), wk =   0.0039062
        k(  115) = (   0.1250000  -0.2500000   0.2500000), wk =   0.0039062
        k(  116) = (   0.1250000  -0.2500000   0.3750000), wk =   0.0039062
        k(  117) = (   0.1250000  -0.2500000  -0.5000000), wk =   0.0039062
        k(  118) = (   0.1250000  -0.2500000  -0.3750000), wk =   0.0039062
        k(  119) = (   0.1250000  -0.2500000  -0.2500000), wk =   0.0039062
        k(  120) = (   0.1250000  -0.2500000  -0.1250000), wk =   0.0039062
        k(  121) = (   0.1250000  -0.1250000   0.0000000), wk =   0.0039062
        k(  122) = (   0.1250000  -0.1250000   0.1250000), wk =   0.0039062
        k(  123) = (   0.1250000  -0.1250000   0.2500000), wk =   0.0039062
        k(  124) = (   0.1250000  -0.1250000   0.3750000), wk =   0.0039062
        k(  125) = (   0.1250000  -0.1250000  -0.5000000), wk =   0.0039062
        k(  126) = (   0.1250000  -0.1250000  -0.3750000), wk =   0.0039062
        k(  127) = (   0.1250000  -0.1250000  -0.2500000), wk =   0.0039062
        k(  128) = (   0.1250000  -0.1250000  -0.1250000), wk =   0.0039062
        k(  129) = (   0.2500000   0.0000000   0.0000000), wk =   0.0039062
        k(  130) = (   0.2500000   0.0000000   0.1250000), wk =   0.0039062
        k(  131) = (   0.2500000   0.0000000   0.2500000), wk =   0.0039062
        k(  132) = (   0.2500000   0.0000000   0.3750000), wk =   0.0039062
        k(  133) = (   0.2500000   0.0000000  -0.5000000), wk =   0.0039062
        k(  134) = (   0.2500000   0.0000000  -0.3750000), wk =   0.0039062
        k(  135) = (   0.2500000   0.0000000  -0.2500000), wk =   0.0039062
        k(  136) = (   0.2500000   0.0000000  -0.1250000), wk =   0.0039062
        k(  137) = (   0.2500000   0.1250000  -0.0000000), wk =   0.0039062
        k(  138) = (   0.2500000   0.1250000   0.1250000), wk =   0.0039062
        k(  139) = (   0.2500000   0.1250000   0.2500000), wk =   0.0039062
        k(  140) = (   0.2500000   0.1250000   0.3750000), wk =   0.0039062
        k(  141) = (   0.2500000   0.1250000  -0.5000000), wk =   0.0039062
        k(  142) = (   0.2500000   0.1250000  -0.3750000), wk =   0.0039062
        k(  143) = (   0.2500000   0.1250000  -0.2500000), wk =   0.0039062
        k(  144) = (   0.2500000   0.1250000  -0.1250000), wk =   0.0039062
        k(  145) = (   0.2500000   0.2500000   0.0000000), wk =   0.0039062
        k(  146) = (   0.2500000   0.2500000   0.1250000), wk =   0.0039062
        k(  147) = (   0.2500000   0.2500000   0.2500000), wk =   0.0039062
        k(  148) = (   0.2500000   0.2500000   0.3750000), wk =   0.0039062
        k(  149) = (   0.2500000   0.2500000  -0.5000000), wk =   0.0039062
        k(  150) = (   0.2500000   0.2500000  -0.3750000), wk =   0.0039062
        k(  151) = (   0.2500000   0.2500000  -0.2500000), wk =   0.0039062
        k(  152) = (   0.2500000   0.2500000  -0.1250000), wk =   0.0039062
        k(  153) = (   0.2500000   0.3750000  -0.0000000), wk =   0.0039062
        k(  154) = (   0.2500000   0.3750000   0.1250000), wk =   0.0039062
        k(  155) = (   0.2500000   0.3750000   0.2500000), wk =   0.0039062
        k(  156) = (   0.2500000   0.3750000   0.3750000), wk =   0.0039062
        k(  157) = (   0.2500000   0.3750000  -0.5000000), wk =   0.0039062
        k(  158) = (   0.2500000   0.3750000  -0.3750000), wk =   0.0039062
        k(  159) = (   0.2500000   0.3750000  -0.2500000), wk =   0.0039062
        k(  160) = (   0.2500000   0.3750000  -0.1250000), wk =   0.0039062
        k(  161) = (   0.2500000  -0.5000000   0.0000000), wk =   0.0039062
        k(  162) = (   0.2500000  -0.5000000   0.1250000), wk =   0.0039062
        k(  163) = (   0.2500000  -0.5000000   0.2500000), wk =   0.0039062
        k(  164) = (   0.2500000  -0.5000000   0.3750000), wk =   0.0039062
        k(  165) = (   0.2500000  -0.5000000  -0.5000000), wk =   0.0039062
        k(  166) = (   0.2500000  -0.5000000  -0.3750000), wk =   0.0039062
        k(  167) = (   0.2500000  -0.5000000  -0.2500000), wk =   0.0039062
        k(  168) = (   0.2500000  -0.5000000  -0.1250000), wk =   0.0039062
        k(  169) = (   0.2500000  -0.3750000   0.0000000), wk =   0.0039062
        k(  170) = (   0.2500000  -0.3750000   0.1250000), wk =   0.0039062
        k(  171) = (   0.2500000  -0.3750000   0.2500000), wk =   0.0039062
        k(  172) = (   0.2500000  -0.3750000   0.3750000), wk =   0.0039062
        k(  173) = (   0.2500000  -0.3750000  -0.5000000), wk =   0.0039062
        k(  174) = (   0.2500000  -0.3750000  -0.3750000), wk =   0.0039062
        k(  175) = (   0.2500000  -0.3750000  -0.2500000), wk =   0.0039062
        k(  176) = (   0.2500000  -0.3750000  -0.1250000), wk =   0.0039062
        k(  177) = (   0.2500000  -0.2500000   0.0000000), wk =   0.0039062
        k(  178) = (   0.2500000  -0.2500000   0.1250000), wk =   0.0039062
        k(  179) = (   0.2500000  -0.2500000   0.2500000), wk =   0.0039062
        k(  180) = (   0.2500000  -0.2500000   0.3750000), wk =   0.0039062
        k(  181) = (   0.2500000  -0.2500000  -0.5000000), wk =   0.0039062
        k(  182) = (   0.2500000  -0.2500000  -0.3750000), wk =   0.0039062
        k(  183) = (   0.2500000  -0.2500000  -0.2500000), wk =   0.0039062
        k(  184) = (   0.2500000  -0.2500000  -0.1250000), wk =   0.0039062
        k(  185) = (   0.2500000  -0.1250000   0.0000000), wk =   0.0039062
        k(  186) = (   0.2500000  -0.1250000   0.1250000), wk =   0.0039062
        k(  187) = (   0.2500000  -0.1250000   0.2500000), wk =   0.0039062
        k(  188) = (   0.2500000  -0.1250000   0.3750000), wk =   0.0039062
        k(  189) = (   0.2500000  -0.1250000  -0.5000000), wk =   0.0039062
        k(  190) = (   0.2500000  -0.1250000  -0.3750000), wk =   0.0039062
        k(  191) = (   0.2500000  -0.1250000  -0.2500000), wk =   0.0039062
        k(  192) = (   0.2500000  -0.1250000  -0.1250000), wk =   0.0039062
        k(  193) = (   0.3750000   0.0000000   0.0000000), wk =   0.0039062
        k(  194) = (   0.3750000   0.0000000   0.1250000), wk =   0.0039062
        k(  195) = (   0.3750000   0.0000000   0.2500000), wk =   0.0039062
        k(  196) = (   0.3750000   0.0000000   0.3750000), wk =   0.0039062
        k(  197) = (   0.3750000   0.0000000  -0.5000000), wk =   0.0039062
        k(  198) = (   0.3750000   0.0000000  -0.3750000), wk =   0.0039062
        k(  199) = (   0.3750000   0.0000000  -0.2500000), wk =   0.0039062
        k(  200) = (   0.3750000   0.0000000  -0.1250000), wk =   0.0039062
        k(  201) = (   0.3750000   0.1250000   0.0000000), wk =   0.0039062
        k(  202) = (   0.3750000   0.1250000   0.1250000), wk =   0.0039062
        k(  203) = (   0.3750000   0.1250000   0.2500000), wk =   0.0039062
        k(  204) = (   0.3750000   0.1250000   0.3750000), wk =   0.0039062
        k(  205) = (   0.3750000   0.1250000  -0.5000000), wk =   0.0039062
        k(  206) = (   0.3750000   0.1250000  -0.3750000), wk =   0.0039062
        k(  207) = (   0.3750000   0.1250000  -0.2500000), wk =   0.0039062
        k(  208) = (   0.3750000   0.1250000  -0.1250000), wk =   0.0039062
        k(  209) = (   0.3750000   0.2500000   0.0000000), wk =   0.0039062
        k(  210) = (   0.3750000   0.2500000   0.1250000), wk =   0.0039062
        k(  211) = (   0.3750000   0.2500000   0.2500000), wk =   0.0039062
        k(  212) = (   0.3750000   0.2500000   0.3750000), wk =   0.0039062
        k(  213) = (   0.3750000   0.2500000  -0.5000000), wk =   0.0039062
        k(  214) = (   0.3750000   0.2500000  -0.3750000), wk =   0.0039062
        k(  215) = (   0.3750000   0.2500000  -0.2500000), wk =   0.0039062
        k(  216) = (   0.3750000   0.2500000  -0.1250000), wk =   0.0039062
        k(  217) = (   0.3750000   0.3750000   0.0000000), wk =   0.0039062
        k(  218) = (   0.3750000   0.3750000   0.1250000), wk =   0.0039062
        k(  219) = (   0.3750000   0.3750000   0.2500000), wk =   0.0039062
        k(  220) = (   0.3750000   0.3750000   0.3750000), wk =   0.0039062
        k(  221) = (   0.3750000   0.3750000  -0.5000000), wk =   0.0039062
        k(  222) = (   0.3750000   0.3750000  -0.3750000), wk =   0.0039062
        k(  223) = (   0.3750000   0.3750000  -0.2500000), wk =   0.0039062
        k(  224) = (   0.3750000   0.3750000  -0.1250000), wk =   0.0039062
        k(  225) = (   0.3750000  -0.5000000   0.0000000), wk =   0.0039062
        k(  226) = (   0.3750000  -0.5000000   0.1250000), wk =   0.0039062
        k(  227) = (   0.3750000  -0.5000000   0.2500000), wk =   0.0039062
        k(  228) = (   0.3750000  -0.5000000   0.3750000), wk =   0.0039062
        k(  229) = (   0.3750000  -0.5000000  -0.5000000), wk =   0.0039062
        k(  230) = (   0.3750000  -0.5000000  -0.3750000), wk =   0.0039062
        k(  231) = (   0.3750000  -0.5000000  -0.2500000), wk =   0.0039062
        k(  232) = (   0.3750000  -0.5000000  -0.1250000), wk =   0.0039062
        k(  233) = (   0.3750000  -0.3750000   0.0000000), wk =   0.0039062
        k(  234) = (   0.3750000  -0.3750000   0.1250000), wk =   0.0039062
        k(  235) = (   0.3750000  -0.3750000   0.2500000), wk =   0.0039062
        k(  236) = (   0.3750000  -0.3750000   0.3750000), wk =   0.0039062
        k(  237) = (   0.3750000  -0.3750000  -0.5000000), wk =   0.0039062
        k(  238) = (   0.3750000  -0.3750000  -0.3750000), wk =   0.0039062
        k(  239) = (   0.3750000  -0.3750000  -0.2500000), wk =   0.0039062
        k(  240) = (   0.3750000  -0.3750000  -0.1250000), wk =   0.0039062
        k(  241) = (   0.3750000  -0.2500000   0.0000000), wk =   0.0039062
        k(  242) = (   0.3750000  -0.2500000   0.1250000), wk =   0.0039062
        k(  243) = (   0.3750000  -0.2500000   0.2500000), wk =   0.0039062
        k(  244) = (   0.3750000  -0.2500000   0.3750000), wk =   0.0039062
        k(  245) = (   0.3750000  -0.2500000  -0.5000000), wk =   0.0039062
        k(  246) = (   0.3750000  -0.2500000  -0.3750000), wk =   0.0039062
        k(  247) = (   0.3750000  -0.2500000  -0.2500000), wk =   0.0039062
        k(  248) = (   0.3750000  -0.2500000  -0.1250000), wk =   0.0039062
        k(  249) = (   0.3750000  -0.1250000   0.0000000), wk =   0.0039062
        k(  250) = (   0.3750000  -0.1250000   0.1250000), wk =   0.0039062
        k(  251) = (   0.3750000  -0.1250000   0.2500000), wk =   0.0039062
        k(  252) = (   0.3750000  -0.1250000   0.3750000), wk =   0.0039062
        k(  253) = (   0.3750000  -0.1250000  -0.5000000), wk =   0.0039062
        k(  254) = (   0.3750000  -0.1250000  -0.3750000), wk =   0.0039062
        k(  255) = (   0.3750000  -0.1250000  -0.2500000), wk =   0.0039062
        k(  256) = (   0.3750000  -0.1250000  -0.1250000), wk =   0.0039062
        k(  257) = (  -0.5000000  -0.0000000  -0.0000000), wk =   0.0039062
        k(  258) = (  -0.5000000  -0.0000000   0.1250000), wk =   0.0039062
        k(  259) = (  -0.5000000  -0.0000000   0.2500000), wk =   0.0039062
        k(  260) = (  -0.5000000  -0.0000000   0.3750000), wk =   0.0039062
        k(  261) = (  -0.5000000  -0.0000000  -0.5000000), wk =   0.0039062
        k(  262) = (  -0.5000000  -0.0000000  -0.3750000), wk =   0.0039062
        k(  263) = (  -0.5000000  -0.0000000  -0.2500000), wk =   0.0039062
        k(  264) = (  -0.5000000  -0.0000000  -0.1250000), wk =   0.0039062
        k(  265) = (  -0.5000000   0.1250000  -0.0000000), wk =   0.0039062
        k(  266) = (  -0.5000000   0.1250000   0.1250000), wk =   0.0039062
        k(  267) = (  -0.5000000   0.1250000   0.2500000), wk =   0.0039062
        k(  268) = (  -0.5000000   0.1250000   0.3750000), wk =   0.0039062
        k(  269) = (  -0.5000000   0.1250000  -0.5000000), wk =   0.0039062
        k(  270) = (  -0.5000000   0.1250000  -0.3750000), wk =   0.0039062
        k(  271) = (  -0.5000000   0.1250000  -0.2500000), wk =   0.0039062
        k(  272) = (  -0.5000000   0.1250000  -0.1250000), wk =   0.0039062
        k(  273) = (  -0.5000000   0.2500000   0.0000000), wk =   0.0039062
        k(  274) = (  -0.5000000   0.2500000   0.1250000), wk =   0.0039062
        k(  275) = (  -0.5000000   0.2500000   0.2500000), wk =   0.0039062
        k(  276) = (  -0.5000000   0.2500000   0.3750000), wk =   0.0039062
        k(  277) = (  -0.5000000   0.2500000  -0.5000000), wk =   0.0039062
        k(  278) = (  -0.5000000   0.2500000  -0.3750000), wk =   0.0039062
        k(  279) = (  -0.5000000   0.2500000  -0.2500000), wk =   0.0039062
        k(  280) = (  -0.5000000   0.2500000  -0.1250000), wk =   0.0039062
        k(  281) = (  -0.5000000   0.3750000  -0.0000000), wk =   0.0039062
        k(  282) = (  -0.5000000   0.3750000   0.1250000), wk =   0.0039062
        k(  283) = (  -0.5000000   0.3750000   0.2500000), wk =   0.0039062
        k(  284) = (  -0.5000000   0.3750000   0.3750000), wk =   0.0039062
        k(  285) = (  -0.5000000   0.3750000  -0.5000000), wk =   0.0039062
        k(  286) = (  -0.5000000   0.3750000  -0.3750000), wk =   0.0039062
        k(  287) = (  -0.5000000   0.3750000  -0.2500000), wk =   0.0039062
        k(  288) = (  -0.5000000   0.3750000  -0.1250000), wk =   0.0039062
        k(  289) = (  -0.5000000  -0.5000000  -0.0000000), wk =   0.0039062
        k(  290) = (  -0.5000000  -0.5000000   0.1250000), wk =   0.0039062
        k(  291) = (  -0.5000000  -0.5000000   0.2500000), wk =   0.0039062
        k(  292) = (  -0.5000000  -0.5000000   0.3750000), wk =   0.0039062
        k(  293) = (  -0.5000000  -0.5000000  -0.5000000), wk =   0.0039062
        k(  294) = (  -0.5000000  -0.5000000  -0.3750000), wk =   0.0039062
        k(  295) = (  -0.5000000  -0.5000000  -0.2500000), wk =   0.0039062
        k(  296) = (  -0.5000000  -0.5000000  -0.1250000), wk =   0.0039062
        k(  297) = (  -0.5000000  -0.3750000   0.0000000), wk =   0.0039062
        k(  298) = (  -0.5000000  -0.3750000   0.1250000), wk =   0.0039062
        k(  299) = (  -0.5000000  -0.3750000   0.2500000), wk =   0.0039062
        k(  300) = (  -0.5000000  -0.3750000   0.3750000), wk =   0.0039062
        k(  301) = (  -0.5000000  -0.3750000  -0.5000000), wk =   0.0039062
        k(  302) = (  -0.5000000  -0.3750000  -0.3750000), wk =   0.0039062
        k(  303) = (  -0.5000000  -0.3750000  -0.2500000), wk =   0.0039062
        k(  304) = (  -0.5000000  -0.3750000  -0.1250000), wk =   0.0039062
        k(  305) = (  -0.5000000  -0.2500000   0.0000000), wk =   0.0039062
        k(  306) = (  -0.5000000  -0.2500000   0.1250000), wk =   0.0039062
        k(  307) = (  -0.5000000  -0.2500000   0.2500000), wk =   0.0039062
        k(  308) = (  -0.5000000  -0.2500000   0.3750000), wk =   0.0039062
        k(  309) = (  -0.5000000  -0.2500000  -0.5000000), wk =   0.0039062
        k(  310) = (  -0.5000000  -0.2500000  -0.3750000), wk =   0.0039062
        k(  311) = (  -0.5000000  -0.2500000  -0.2500000), wk =   0.0039062
        k(  312) = (  -0.5000000  -0.2500000  -0.1250000), wk =   0.0039062
        k(  313) = (  -0.5000000  -0.1250000   0.0000000), wk =   0.0039062
        k(  314) = (  -0.5000000  -0.1250000   0.1250000), wk =   0.0039062
        k(  315) = (  -0.5000000  -0.1250000   0.2500000), wk =   0.0039062
        k(  316) = (  -0.5000000  -0.1250000   0.3750000), wk =   0.0039062
        k(  317) = (  -0.5000000  -0.1250000  -0.5000000), wk =   0.0039062
        k(  318) = (  -0.5000000  -0.1250000  -0.3750000), wk =   0.0039062
        k(  319) = (  -0.5000000  -0.1250000  -0.2500000), wk =   0.0039062
        k(  320) = (  -0.5000000  -0.1250000  -0.1250000), wk =   0.0039062
        k(  321) = (  -0.3750000  -0.0000000   0.0000000), wk =   0.0039062
        k(  322) = (  -0.3750000  -0.0000000   0.1250000), wk =   0.0039062
        k(  323) = (  -0.3750000  -0.0000000   0.2500000), wk =   0.0039062
        k(  324) = (  -0.3750000  -0.0000000   0.3750000), wk =   0.0039062
        k(  325) = (  -0.3750000  -0.0000000  -0.5000000), wk =   0.0039062
        k(  326) = (  -0.3750000  -0.0000000  -0.3750000), wk =   0.0039062
        k(  327) = (  -0.3750000  -0.0000000  -0.2500000), wk =   0.0039062
        k(  328) = (  -0.3750000  -0.0000000  -0.1250000), wk =   0.0039062
        k(  329) = (  -0.3750000   0.1250000  -0.0000000), wk =   0.0039062
        k(  330) = (  -0.3750000   0.1250000   0.1250000), wk =   0.0039062
        k(  331) = (  -0.3750000   0.1250000   0.2500000), wk =   0.0039062
        k(  332) = (  -0.3750000   0.1250000   0.3750000), wk =   0.0039062
        k(  333) = (  -0.3750000   0.1250000  -0.5000000), wk =   0.0039062
        k(  334) = (  -0.3750000   0.1250000  -0.3750000), wk =   0.0039062
        k(  335) = (  -0.3750000   0.1250000  -0.2500000), wk =   0.0039062
        k(  336) = (  -0.3750000   0.1250000  -0.1250000), wk =   0.0039062
        k(  337) = (  -0.3750000   0.2500000  -0.0000000), wk =   0.0039062
        k(  338) = (  -0.3750000   0.2500000   0.1250000), wk =   0.0039062
        k(  339) = (  -0.3750000   0.2500000   0.2500000), wk =   0.0039062
        k(  340) = (  -0.3750000   0.2500000   0.3750000), wk =   0.0039062
        k(  341) = (  -0.3750000   0.2500000  -0.5000000), wk =   0.0039062
        k(  342) = (  -0.3750000   0.2500000  -0.3750000), wk =   0.0039062
        k(  343) = (  -0.3750000   0.2500000  -0.2500000), wk =   0.0039062
        k(  344) = (  -0.3750000   0.2500000  -0.1250000), wk =   0.0039062
        k(  345) = (  -0.3750000   0.3750000  -0.0000000), wk =   0.0039062
        k(  346) = (  -0.3750000   0.3750000   0.1250000), wk =   0.0039062
        k(  347) = (  -0.3750000   0.3750000   0.2500000), wk =   0.0039062
        k(  348) = (  -0.3750000   0.3750000   0.3750000), wk =   0.0039062
        k(  349) = (  -0.3750000   0.3750000  -0.5000000), wk =   0.0039062
        k(  350) = (  -0.3750000   0.3750000  -0.3750000), wk =   0.0039062
        k(  351) = (  -0.3750000   0.3750000  -0.2500000), wk =   0.0039062
        k(  352) = (  -0.3750000   0.3750000  -0.1250000), wk =   0.0039062
        k(  353) = (  -0.3750000  -0.5000000   0.0000000), wk =   0.0039062
        k(  354) = (  -0.3750000  -0.5000000   0.1250000), wk =   0.0039062
        k(  355) = (  -0.3750000  -0.5000000   0.2500000), wk =   0.0039062
        k(  356) = (  -0.3750000  -0.5000000   0.3750000), wk =   0.0039062
        k(  357) = (  -0.3750000  -0.5000000  -0.5000000), wk =   0.0039062
        k(  358) = (  -0.3750000  -0.5000000  -0.3750000), wk =   0.0039062
        k(  359) = (  -0.3750000  -0.5000000  -0.2500000), wk =   0.0039062
        k(  360) = (  -0.3750000  -0.5000000  -0.1250000), wk =   0.0039062
        k(  361) = (  -0.3750000  -0.3750000   0.0000000), wk =   0.0039062
        k(  362) = (  -0.3750000  -0.3750000   0.1250000), wk =   0.0039062
        k(  363) = (  -0.3750000  -0.3750000   0.2500000), wk =   0.0039062
        k(  364) = (  -0.3750000  -0.3750000   0.3750000), wk =   0.0039062
        k(  365) = (  -0.3750000  -0.3750000  -0.5000000), wk =   0.0039062
        k(  366) = (  -0.3750000  -0.3750000  -0.3750000), wk =   0.0039062
        k(  367) = (  -0.3750000  -0.3750000  -0.2500000), wk =   0.0039062
        k(  368) = (  -0.3750000  -0.3750000  -0.1250000), wk =   0.0039062
        k(  369) = (  -0.3750000  -0.2500000   0.0000000), wk =   0.0039062
        k(  370) = (  -0.3750000  -0.2500000   0.1250000), wk =   0.0039062
        k(  371) = (  -0.3750000  -0.2500000   0.2500000), wk =   0.0039062
        k(  372) = (  -0.3750000  -0.2500000   0.3750000), wk =   0.0039062
        k(  373) = (  -0.3750000  -0.2500000  -0.5000000), wk =   0.0039062
        k(  374) = (  -0.3750000  -0.2500000  -0.3750000), wk =   0.0039062
        k(  375) = (  -0.3750000  -0.2500000  -0.2500000), wk =   0.0039062
        k(  376) = (  -0.3750000  -0.2500000  -0.1250000), wk =   0.0039062
        k(  377) = (  -0.3750000  -0.1250000   0.0000000), wk =   0.0039062
        k(  378) = (  -0.3750000  -0.1250000   0.1250000), wk =   0.0039062
        k(  379) = (  -0.3750000  -0.1250000   0.2500000), wk =   0.0039062
        k(  380) = (  -0.3750000  -0.1250000   0.3750000), wk =   0.0039062
        k(  381) = (  -0.3750000  -0.1250000  -0.5000000), wk =   0.0039062
        k(  382) = (  -0.3750000  -0.1250000  -0.3750000), wk =   0.0039062
        k(  383) = (  -0.3750000  -0.1250000  -0.2500000), wk =   0.0039062
        k(  384) = (  -0.3750000  -0.1250000  -0.1250000), wk =   0.0039062
        k(  385) = (  -0.2500000  -0.0000000  -0.0000000), wk =   0.0039062
        k(  386) = (  -0.2500000  -0.0000000   0.1250000), wk =   0.0039062
        k(  387) = (  -0.2500000  -0.0000000   0.2500000), wk =   0.0039062
        k(  388) = (  -0.2500000  -0.0000000   0.3750000), wk =   0.0039062
        k(  389) = (  -0.2500000  -0.0000000  -0.5000000), wk =   0.0039062
        k(  390) = (  -0.2500000  -0.0000000  -0.3750000), wk =   0.0039062
        k(  391) = (  -0.2500000  -0.0000000  -0.2500000), wk =   0.0039062
        k(  392) = (  -0.2500000  -0.0000000  -0.1250000), wk =   0.0039062
        k(  393) = (  -0.2500000   0.1250000   0.0000000), wk =   0.0039062
        k(  394) = (  -0.2500000   0.1250000   0.1250000), wk =   0.0039062
        k(  395) = (  -0.2500000   0.1250000   0.2500000), wk =   0.0039062
        k(  396) = (  -0.2500000   0.1250000   0.3750000), wk =   0.0039062
        k(  397) = (  -0.2500000   0.1250000  -0.5000000), wk =   0.0039062
        k(  398) = (  -0.2500000   0.1250000  -0.3750000), wk =   0.0039062
        k(  399) = (  -0.2500000   0.1250000  -0.2500000), wk =   0.0039062
        k(  400) = (  -0.2500000   0.1250000  -0.1250000), wk =   0.0039062
        k(  401) = (  -0.2500000   0.2500000  -0.0000000), wk =   0.0039062
        k(  402) = (  -0.2500000   0.2500000   0.1250000), wk =   0.0039062
        k(  403) = (  -0.2500000   0.2500000   0.2500000), wk =   0.0039062
        k(  404) = (  -0.2500000   0.2500000   0.3750000), wk =   0.0039062
        k(  405) = (  -0.2500000   0.2500000  -0.5000000), wk =   0.0039062
        k(  406) = (  -0.2500000   0.2500000  -0.3750000), wk =   0.0039062
        k(  407) = (  -0.2500000   0.2500000  -0.2500000), wk =   0.0039062
        k(  408) = (  -0.2500000   0.2500000  -0.1250000), wk =   0.0039062
        k(  409) = (  -0.2500000   0.3750000  -0.0000000), wk =   0.0039062
        k(  410) = (  -0.2500000   0.3750000   0.1250000), wk =   0.0039062
        k(  411) = (  -0.2500000   0.3750000   0.2500000), wk =   0.0039062
        k(  412) = (  -0.2500000   0.3750000   0.3750000), wk =   0.0039062
        k(  413) = (  -0.2500000   0.3750000  -0.5000000), wk =   0.0039062
        k(  414) = (  -0.2500000   0.3750000  -0.3750000), wk =   0.0039062
        k(  415) = (  -0.2500000   0.3750000  -0.2500000), wk =   0.0039062
        k(  416) = (  -0.2500000   0.3750000  -0.1250000), wk =   0.0039062
        k(  417) = (  -0.2500000  -0.5000000   0.0000000), wk =   0.0039062
        k(  418) = (  -0.2500000  -0.5000000   0.1250000), wk =   0.0039062
        k(  419) = (  -0.2500000  -0.5000000   0.2500000), wk =   0.0039062
        k(  420) = (  -0.2500000  -0.5000000   0.3750000), wk =   0.0039062
        k(  421) = (  -0.2500000  -0.5000000  -0.5000000), wk =   0.0039062
        k(  422) = (  -0.2500000  -0.5000000  -0.3750000), wk =   0.0039062
        k(  423) = (  -0.2500000  -0.5000000  -0.2500000), wk =   0.0039062
        k(  424) = (  -0.2500000  -0.5000000  -0.1250000), wk =   0.0039062
        k(  425) = (  -0.2500000  -0.3750000   0.0000000), wk =   0.0039062
        k(  426) = (  -0.2500000  -0.3750000   0.1250000), wk =   0.0039062
        k(  427) = (  -0.2500000  -0.3750000   0.2500000), wk =   0.0039062
        k(  428) = (  -0.2500000  -0.3750000   0.3750000), wk =   0.0039062
        k(  429) = (  -0.2500000  -0.3750000  -0.5000000), wk =   0.0039062
        k(  430) = (  -0.2500000  -0.3750000  -0.3750000), wk =   0.0039062
        k(  431) = (  -0.2500000  -0.3750000  -0.2500000), wk =   0.0039062
        k(  432) = (  -0.2500000  -0.3750000  -0.1250000), wk =   0.0039062
        k(  433) = (  -0.2500000  -0.2500000  -0.0000000), wk =   0.0039062
        k(  434) = (  -0.2500000  -0.2500000   0.1250000), wk =   0.0039062
        k(  435) = (  -0.2500000  -0.2500000   0.2500000), wk =   0.0039062
        k(  436) = (  -0.2500000  -0.2500000   0.3750000), wk =   0.0039062
        k(  437) = (  -0.2500000  -0.2500000  -0.5000000), wk =   0.0039062
        k(  438) = (  -0.2500000  -0.2500000  -0.3750000), wk =   0.0039062
        k(  439) = (  -0.2500000  -0.2500000  -0.2500000), wk =   0.0039062
        k(  440) = (  -0.2500000  -0.2500000  -0.1250000), wk =   0.0039062
        k(  441) = (  -0.2500000  -0.1250000   0.0000000), wk =   0.0039062
        k(  442) = (  -0.2500000  -0.1250000   0.1250000), wk =   0.0039062
        k(  443) = (  -0.2500000  -0.1250000   0.2500000), wk =   0.0039062
        k(  444) = (  -0.2500000  -0.1250000   0.3750000), wk =   0.0039062
        k(  445) = (  -0.2500000  -0.1250000  -0.5000000), wk =   0.0039062
        k(  446) = (  -0.2500000  -0.1250000  -0.3750000), wk =   0.0039062
        k(  447) = (  -0.2500000  -0.1250000  -0.2500000), wk =   0.0039062
        k(  448) = (  -0.2500000  -0.1250000  -0.1250000), wk =   0.0039062
        k(  449) = (  -0.1250000  -0.0000000  -0.0000000), wk =   0.0039062
        k(  450) = (  -0.1250000  -0.0000000   0.1250000), wk =   0.0039062
        k(  451) = (  -0.1250000  -0.0000000   0.2500000), wk =   0.0039062
        k(  452) = (  -0.1250000  -0.0000000   0.3750000), wk =   0.0039062
        k(  453) = (  -0.1250000  -0.0000000  -0.5000000), wk =   0.0039062
        k(  454) = (  -0.1250000  -0.0000000  -0.3750000), wk =   0.0039062
        k(  455) = (  -0.1250000  -0.0000000  -0.2500000), wk =   0.0039062
        k(  456) = (  -0.1250000  -0.0000000  -0.1250000), wk =   0.0039062
        k(  457) = (  -0.1250000   0.1250000  -0.0000000), wk =   0.0039062
        k(  458) = (  -0.1250000   0.1250000   0.1250000), wk =   0.0039062
        k(  459) = (  -0.1250000   0.1250000   0.2500000), wk =   0.0039062
        k(  460) = (  -0.1250000   0.1250000   0.3750000), wk =   0.0039062
        k(  461) = (  -0.1250000   0.1250000  -0.5000000), wk =   0.0039062
        k(  462) = (  -0.1250000   0.1250000  -0.3750000), wk =   0.0039062
        k(  463) = (  -0.1250000   0.1250000  -0.2500000), wk =   0.0039062
        k(  464) = (  -0.1250000   0.1250000  -0.1250000), wk =   0.0039062
        k(  465) = (  -0.1250000   0.2500000  -0.0000000), wk =   0.0039062
        k(  466) = (  -0.1250000   0.2500000   0.1250000), wk =   0.0039062
        k(  467) = (  -0.1250000   0.2500000   0.2500000), wk =   0.0039062
        k(  468) = (  -0.1250000   0.2500000   0.3750000), wk =   0.0039062
        k(  469) = (  -0.1250000   0.2500000  -0.5000000), wk =   0.0039062
        k(  470) = (  -0.1250000   0.2500000  -0.3750000), wk =   0.0039062
        k(  471) = (  -0.1250000   0.2500000  -0.2500000), wk =   0.0039062
        k(  472) = (  -0.1250000   0.2500000  -0.1250000), wk =   0.0039062
        k(  473) = (  -0.1250000   0.3750000  -0.0000000), wk =   0.0039062
        k(  474) = (  -0.1250000   0.3750000   0.1250000), wk =   0.0039062
        k(  475) = (  -0.1250000   0.3750000   0.2500000), wk =   0.0039062
        k(  476) = (  -0.1250000   0.3750000   0.3750000), wk =   0.0039062
        k(  477) = (  -0.1250000   0.3750000  -0.5000000), wk =   0.0039062
        k(  478) = (  -0.1250000   0.3750000  -0.3750000), wk =   0.0039062
        k(  479) = (  -0.1250000   0.3750000  -0.2500000), wk =   0.0039062
        k(  480) = (  -0.1250000   0.3750000  -0.1250000), wk =   0.0039062
        k(  481) = (  -0.1250000  -0.5000000   0.0000000), wk =   0.0039062
        k(  482) = (  -0.1250000  -0.5000000   0.1250000), wk =   0.0039062
        k(  483) = (  -0.1250000  -0.5000000   0.2500000), wk =   0.0039062
        k(  484) = (  -0.1250000  -0.5000000   0.3750000), wk =   0.0039062
        k(  485) = (  -0.1250000  -0.5000000  -0.5000000), wk =   0.0039062
[...]
     1.0000   1.0000   0.0000   0.0000

          k =-0.2479-0.3032 0.2296 (   467 PWs)   bands (ev):

     0.4307   3.6409  10.8391  12.1519

     occupation numbers 
     1.0000   1.0000   0.0000   0.0000

          k =-0.2876-0.3339-0.3466 (   464 PWs)   bands (ev):

     1.1467   2.4095  10.3899  13.2428

     occupation numbers 
     1.0000   1.0000   0.0000   0.0000

          k =-0.2819-0.3295-0.2643 (   463 PWs)   bands (ev):

     1.3731   2.1351   9.8649  14.3553

     occupation numbers 
     1.0000   1.0000   0.0000   0.0000

          k =-0.2763-0.3251-0.1820 (   462 PWs)   bands (ev):

     0.6000   3.3436   9.4127  14.5247

     occupation numbers 
     1.0000   1.0000   0.0000   0.0000

          k =-0.2706-0.3207-0.0997 (   464 PWs)   bands (ev):

     0.0666   4.7765   8.9396  13.2170

     occupation numbers 
     1.0000   1.0000   0.0000   0.0000

          k =-0.1287-0.0706-0.0064 (   462 PWs)   bands (ev):

    -2.9585   3.3855   8.2134  17.9425

     occupation numbers 
     1.0000   1.0000   0.0000   0.0000

          k =-0.1230-0.0662 0.0759 (   457 PWs)   bands (ev):

    -2.8905   2.9681   8.7930  18.4430

     occupation numbers 
     1.0000   1.0000   0.0000   0.0000

          k =-0.1174-0.0618 0.1583 (   458 PWs)   bands (ev):

    -2.5726   1.7089  10.7439  19.0607

     occupation numbers 
     1.0000   1.0000   0.0000   0.0000

          k =-0.1117-0.0574 0.2406 (   469 PWs)   bands (ev):

    -2.0077   0.3980  13.2165  19.1553

     occupation numbers 
     1.0000   1.0000   0.0000   0.0000

          k =-0.1514-0.0881-0.3356 (   469 PWs)   bands (ev):

    -1.2020  -0.7384  15.6695  17.3473

     occupation numbers 
     1.0000   1.0000   0.0000   0.0000

          k =-0.1457-0.0838-0.2533 (   468 PWs)   bands (ev):

    -1.6712  -0.1386  14.3549  17.4111

     occupation numbers 
     1.0000   1.0000   0.0000   0.0000

          k =-0.1400-0.0794-0.1710 (   465 PWs)   bands (ev):

    -2.3463   1.1136  11.7638  17.5235

     occupation numbers 
     1.0000   1.0000   0.0000   0.0000

          k =-0.1344-0.0750-0.0887 (   464 PWs)   bands (ev):

    -2.7770   2.4509   9.5273  17.6404

     occupation numbers 
     1.0000   1.0000   0.0000   0.0000

          k =-0.1212 0.1046-0.0018 (   464 PWs)   bands (ev):

    -2.8916   3.5460   8.1845  21.4165

     occupation numbers 
     1.0000   1.0000   0.0000   0.0000

          k =-0.1155 0.1089 0.0805 (   463 PWs)   bands (ev):

    -2.7808   2.8879   9.0974  21.8556

     occupation numbers 
     1.0000   1.0000   0.0000   0.0000

          k =-0.1099 0.1133 0.1629 (   458 PWs)   bands (ev):

    -2.4198   1.5668  11.2254  21.9451

     occupation numbers 
     1.0000   1.0000   0.0000   0.0000

          k =-0.1042 0.1177 0.2452 (   461 PWs)   bands (ev):

    -1.8126   0.2661  13.8558  20.1622

     occupation numbers 
     1.0000   1.0000   0.0000   0.0000

          k =-0.1439 0.0870-0.3310 (   466 PWs)   bands (ev):

    -0.9859  -0.8178  16.6943  17.1920

     occupation numbers 
     1.0000   1.0000   0.0000   0.0000

          k =-0.1382 0.0914-0.2487 (   469 PWs)   bands (ev):

    -1.7321   0.1389  14.1542  19.6493

     occupation numbers 
     1.0000   1.0000   0.0000   0.0000

          k =-0.1325 0.0958-0.1664 (   468 PWs)   bands (ev):

    -2.3668   1.4256  11.4741  20.8077

     occupation numbers 
     1.0000   1.0000   0.0000   0.0000

          k =-0.1269 0.1002-0.0841 (   463 PWs)   bands (ev):

    -2.7538   2.7633   9.2733  21.0704

     occupation numbers 
     1.0000   1.0000   0.0000   0.0000

          k =-0.1137 0.2797 0.0028 (   465 PWs)   bands (ev):

    -1.7120   5.1114   8.5388  17.8691

     occupation numbers 
     1.0000   1.0000   0.0000   0.0000

          k =-0.1080 0.2841 0.0852 (   462 PWs)   bands (ev):

    -1.5571   4.0621   9.9226  18.0204

     occupation numbers 
     1.0000   1.0000   0.0000   0.0000

          k =-0.1023 0.2885 0.1675 (   466 PWs)   bands (ev):

    -1.1511   2.5996  12.2460  18.3971

     occupation numbers 
     1.0000   1.0000   0.0000   0.0000

          k =-0.0967 0.2929 0.2498 (   475 PWs)   bands (ev):

    -0.4963   1.2750  14.9072  18.8726

     occupation numbers 
     1.0000   1.0000   0.0000   0.0000

          k =-0.1363 0.2621-0.3264 (   474 PWs)   bands (ev):

     0.1597   0.4298  16.9489  17.7004

     occupation numbers 
     1.0000   1.0000   0.0000   0.0000

          k =-0.1307 0.2665-0.2441 (   471 PWs)   bands (ev):

    -0.6765   1.5697  14.2286  18.7541

     occupation numbers 
     1.0000   1.0000   0.0000   0.0000

          k =-0.1250 0.2709-0.1618 (   464 PWs)   bands (ev):

    -1.2722   2.9390  11.6415  18.2836

     occupation numbers 
     1.0000   1.0000   0.0000   0.0000

          k =-0.1193 0.2753-0.0795 (   460 PWs)   bands (ev):

    -1.6179   4.3919   9.4604  17.9601

     occupation numbers 
     1.0000   1.0000   0.0000   0.0000

          k =-0.1062 0.4549 0.0074 (   466 PWs)   bands (ev):

     0.5717   7.8651   9.1838  14.6546

     occupation numbers 
     1.0000   0.0000   0.0000   0.0000

          k =-0.1005 0.4592 0.0898 (   462 PWs)   bands (ev):

     0.7713   6.1489  11.1459  14.8233

     occupation numbers 
     1.0000   1.0000   0.0000   0.0000

          k =-0.0948 0.4636 0.1721 (   468 PWs)   bands (ev):

     1.2132   4.5990  13.2286  15.2389

     occupation numbers 
     1.0000   1.0000   0.0000   0.0000

          k =-0.0892 0.4680 0.2544 (   469 PWs)   bands (ev):

     1.9034   3.2972  15.1244  15.9133

     occupation numbers 
     1.0000   1.0000   0.0000   0.0000

          k =-0.1288 0.4373-0.3218 (   468 PWs)   bands (ev):

     2.2454   2.8464  15.6158  16.2676

     occupation numbers 
     1.0000   1.0000   0.0000   0.0000

          k =-0.1232 0.4417-0.2395 (   470 PWs)   bands (ev):

     1.4539   4.0320  14.1567  15.9446

     occupation numbers 
     1.0000   1.0000   0.0000   0.0000

          k =-0.1175 0.4461-0.1572 (   467 PWs)   bands (ev):

     0.9139   5.4640  12.1546  15.2278

     occupation numbers 
     1.0000   1.0000   0.0000   0.0000

          k =-0.1118 0.4505-0.0749 (   465 PWs)   bands (ev):

     0.6189   7.1105  10.0507  14.8141

     occupation numbers 
     1.0000   1.0000   0.0000   0.0000

          k =-0.1588-0.7712-0.0248 (   467 PWs)   bands (ev):

     3.7856   7.7119  11.3514  12.6384

     occupation numbers 
     1.0000   0.0038   0.0000   0.0000

          k =-0.1531-0.7668 0.0575 (   475 PWs)   bands (ev):

     4.0009   7.1896  11.0351  13.1913

     occupation numbers 
     1.0000   1.0000   0.0000   0.0000

          k =-0.1474-0.7624 0.1399 (   475 PWs)   bands (ev):

     4.4154   6.4387  10.9680  13.6734

     occupation numbers 
     1.0000   1.0000   0.0000   0.0000

          k =-0.1418-0.7580 0.2222 (   470 PWs)   bands (ev):

     4.9927   5.6762  11.1526  13.6883

     occupation numbers 
     1.0000   1.0000   0.0000   0.0000

          k =-0.1814-0.7887-0.3540 (   467 PWs)   bands (ev):

     4.8948   5.8254  11.5141  13.0814

     occupation numbers 
     1.0000   1.0000   0.0000   0.0000

          k =-0.1758-0.7844-0.2717 (   465 PWs)   bands (ev):

     4.3526   6.6391  11.8170  12.8098

     occupation numbers 
     1.0000   1.0000   0.0000   0.0000

          k =-0.1701-0.7800-0.1894 (   464 PWs)   bands (ev):

     3.9680   7.3803  11.6964  13.1066

     occupation numbers 
     1.0000   0.9994   0.0000   0.0000

          k =-0.1644-0.7756-0.1071 (   465 PWs)   bands (ev):

     3.7764   7.8002  11.6434  12.5382

     occupation numbers 
     1.0000   0.0001   0.0000   0.0000

          k =-0.1513-0.5960-0.0202 (   475 PWs)   bands (ev):

     3.4617   8.0766  11.0856  11.3625

     occupation numbers 
     1.0000   0.0000   0.0000   0.0000

          k =-0.1456-0.5916 0.0621 (   475 PWs)   bands (ev):

     3.3888   8.3058  10.9221  12.2774

     occupation numbers 
     1.0000   0.0000   0.0000   0.0000

          k =-0.1399-0.5873 0.1445 (   466 PWs)   bands (ev):

     3.5398   7.7821  11.1431  13.5566

     occupation numbers 
     1.0000   0.0002   0.0000   0.0000

          k =-0.1343-0.5829 0.2268 (   463 PWs)   bands (ev):

     3.9093   6.8797  11.5293  12.2204

     occupation numbers 
     1.0000   1.0000   0.0000   0.0000

          k =-0.1739-0.6136-0.3494 (   467 PWs)   bands (ev):

     4.4878   5.9068  11.4083  12.0696

     occupation numbers 
     1.0000   1.0000   0.0000   0.0000

          k =-0.1683-0.6092-0.2671 (   471 PWs)   bands (ev):

     4.9823   5.2990  11.0217  12.1614

     occupation numbers 
     1.0000   1.0000   0.0000   0.0000

          k =-0.1626-0.6048-0.1848 (   472 PWs)   bands (ev):

     4.2811   6.2178  10.8477  11.9135

     occupation numbers 
     1.0000   1.0000   0.0000   0.0000

          k =-0.1569-0.6004-0.1025 (   474 PWs)   bands (ev):

     3.7617   7.2294  10.9292  11.5063

     occupation numbers 
     1.0000   1.0000   0.0000   0.0000

          k =-0.1437-0.4209-0.0156 (   465 PWs)   bands (ev):

     0.2822   7.0411   9.7235  12.7231

     occupation numbers 
     1.0000   1.0000   0.0000   0.0000

          k =-0.1381-0.4165 0.0667 (   463 PWs)   bands (ev):

     0.2597   7.1100   9.8174  13.0216

     occupation numbers 
     1.0000   1.0000   0.0000   0.0000

          k =-0.1324-0.4121 0.1491 (   466 PWs)   bands (ev):

     0.4888   5.5988  11.7850  13.5934

     occupation numbers 
     1.0000   1.0000   0.0000   0.0000

          k =-0.1267-0.4077 0.2314 (   470 PWs)   bands (ev):

     0.9692   4.1350  13.2844  14.3794

     occupation numbers 
     1.0000   1.0000   0.0000   0.0000

          k =-0.1664-0.4384-0.3448 (   471 PWs)   bands (ev):

     1.7080   2.8792  13.0422  15.3416

     occupation numbers 
     1.0000   1.0000   0.0000   0.0000

          k =-0.1607-0.4341-0.2625 (   472 PWs)   bands (ev):

     1.8514   2.7119  12.5497  16.3542

     occupation numbers 
     1.0000   1.0000   0.0000   0.0000

          k =-0.1551-0.4297-0.1802 (   473 PWs)   bands (ev):

     1.0787   3.9611  12.1184  14.2748

     occupation numbers 
     1.0000   1.0000   0.0000   0.0000

          k =-0.1494-0.4253-0.0979 (   464 PWs)   bands (ev):

     0.5555   5.4530  11.2890  12.9071

     occupation numbers 
     1.0000   1.0000   0.0000   0.0000

          k =-0.1362-0.2457-0.0110 (   459 PWs)   bands (ev):

    -1.9034   4.6094   8.7269  15.0147

     occupation numbers 
     1.0000   1.0000   0.0000   0.0000

          k =-0.1306-0.2413 0.0713 (   465 PWs)   bands (ev):

    -1.8790   4.3980   9.0380  15.4280

     occupation numbers 
     1.0000   1.0000   0.0000   0.0000

          k =-0.1249-0.2370 0.1537 (   466 PWs)   bands (ev):

    -1.6029   3.0862  10.9052  16.0712

     occupation numbers 
     1.0000   1.0000   0.0000   0.0000

          k =-0.1192-0.2326 0.2360 (   468 PWs)   bands (ev):

    -1.0759   1.7087  13.1119  16.8051

     occupation numbers 
     1.0000   1.0000   0.0000   0.0000

          k =-0.1589-0.2633-0.3402 (   467 PWs)   bands (ev):

    -0.2986   0.5099  14.3971  17.4177

     occupation numbers 
     1.0000   1.0000   0.0000   0.0000

          k =-0.1532-0.2589-0.2579 (   467 PWs)   bands (ev):

    -0.4732   0.7406  13.9745  16.1365

     occupation numbers 
     1.0000   1.0000   0.0000   0.0000

          k =-0.1476-0.2545-0.1756 (   463 PWs)   bands (ev):

    -1.1974   1.9980  12.3725  15.1095

     occupation numbers 
     1.0000   1.0000   0.0000   0.0000

          k =-0.1419-0.2501-0.0933 (   458 PWs)   bands (ev):

    -1.6754   3.4087  10.2849  14.8715

     occupation numbers 
     1.0000   1.0000   0.0000   0.0000

     the Fermi energy is     7.5689 ev

!    total energy              =      -5.33498945 Ry
     estimated scf accuracy    <       0.00603936 Ry
     smearing contrib. (-TS)   =      -0.00006092 Ry
     internal energy E=F+TS    =      -5.33492853 Ry

     The total energy is F=E-TS. E is the sum of the following terms:
     one-electron contribution =       4.00232380 Ry
     hartree contribution      =       0.01242164 Ry
     xc contribution           =      -3.28418484 Ry
     ewald contribution        =      -6.06548913 Ry

     convergence has been achieved in   1 iterations

     Forces acting on atoms (cartesian axes, Ry/au):

     atom    1 type  1   force =    -0.00688422   -0.01350622   -0.00714916
     atom    2 type  1   force =     0.00688422    0.01350622    0.00714916
     The non-local contrib.  to forces
     atom    1 type  1   force =    -0.03549688   -0.04088761   -0.04443150
     atom    2 type  1   force =     0.03550470    0.04093731    0.04443137
     The ionic contribution  to forces
     atom    1 type  1   force =    -0.02132884   -0.01988979   -0.03481675
     atom    2 type  1   force =     0.02132884    0.01988979    0.03481675
     The local contribution  to forces
     atom    1 type  1   force =     0.04988614    0.04657146    0.08532699
     atom    2 type  1   force =    -0.04991376   -0.04659937   -0.08531283
     The core correction contribution to forces
     atom    1 type  1   force =     0.00207483    0.00214133    0.00259363
     atom    2 type  1   force =    -0.00208055   -0.00211087   -0.00256383
     The Hubbard contrib.    to forces
     atom    1 type  1   force =     0.00000000    0.00000000    0.00000000
     atom    2 type  1   force =     0.00000000    0.00000000    0.00000000
     The SCF correction term to forces
     atom    1 type  1   force =    -0.00203162   -0.00141353   -0.01580175
     atom    2 type  1   force =     0.00203285    0.00141746    0.01579748

     Total force =     0.023703     Total SCF correction =     0.022617
     SCF correction compared to forces is large: reduce conv_thr to get better values


     Computing stress (Cartesian axis) and pressure

          total   stress  (Ry/bohr**3)                   (kbar)     P=       48.86
  -0.00026974  -0.00057166   0.00031683          -39.68      -84.09       46.61
  -0.00057166   0.00230633   0.00013934          -84.09      339.27       20.50
   0.00031683   0.00013934  -0.00104020           46.61       20.50     -153.02

     kinetic stress (kbar)   2644.61    -80.99     40.11
                              -80.99   2954.48     23.65
                               40.11     23.65   2568.22

     local   stress (kbar)    449.99    287.15    -64.58
                              287.15     26.49    -32.92
                              -64.58    -32.92    149.77

     nonloc. stress (kbar)    878.89    -41.28     13.89
                              -41.28    937.03      6.38
                               13.89      6.38    933.68

     hartree stress (kbar)     -1.49     -7.27     -0.12
                               -7.27      7.16     -0.09
                               -0.12     -0.09     11.10

     exc-cor stress (kbar)    117.72     -4.29      1.19
                               -4.29    124.97      0.63
                                1.19      0.63    121.34

     corecor stress (kbar)  -1186.62     12.50     -3.46
                               12.50  -1208.22     -1.94
                               -3.46     -1.94  -1195.99

     ewald   stress (kbar)  -2942.77   -249.91     59.57
                             -249.91  -2502.62     24.79
                               59.57     24.79  -2741.15

     hubbard stress (kbar)      0.00      0.00      0.00
                                0.00      0.00      0.00
                                0.00      0.00      0.00

     DFT-D   stress (kbar)      0.00      0.00      0.00
                                0.00      0.00      0.00
                                0.00      0.00      0.00

     XDM     stress (kbar)      0.00      0.00      0.00
                                0.00      0.00      0.00
                                0.00      0.00      0.00

     dft-nl  stress (kbar)      0.00      0.00      0.00
                                0.00      0.00      0.00
                                0.00      0.00      0.00

     TS-vdW  stress (kbar)      0.00      0.00      0.00
                                0.00      0.00      0.00
                                0.00      0.00      0.00

     MDB     stress (kbar)      0.00      0.00      0.00
                                0.00      0.00      0.00
                                0.00      0.00      0.00

     3D-RISM stress (kbar)      0.00      0.00      0.00
                                0.00      0.00      0.00
                                0.00      0.00      0.00


     Writing all to output data dir ../tmp/Be/Be.save/ :
     XML data file, charge density, pseudopotentials, collected wavefunctions

     init_run     :      1.05s CPU      1.10s WALL (       1 calls)
     electrons    :      3.79s CPU      4.05s WALL (       1 calls)
     forces       :      0.12s CPU      0.12s WALL (       1 calls)
     stress       :      1.07s CPU      1.09s WALL (       1 calls)

     Called by init_run:
     wfcinit      :      0.72s CPU      0.76s WALL (       1 calls)
     wfcinit:atom :      0.03s CPU      0.03s WALL (     512 calls)
     wfcinit:wfcr :      0.54s CPU      0.56s WALL (     512 calls)
     potinit      :      0.02s CPU      0.02s WALL (       1 calls)
     hinit0       :      0.27s CPU      0.28s WALL (       1 calls)

     Called by electrons:
     c_bands      :      3.35s CPU      3.58s WALL (       2 calls)
     sum_band     :      0.43s CPU      0.46s WALL (       2 calls)
     v_of_rho     :      0.01s CPU      0.01s WALL (       2 calls)
     v_h          :      0.00s CPU      0.00s WALL (       2 calls)
     v_xc         :      0.01s CPU      0.01s WALL (       4 calls)
     newd         :      0.01s CPU      0.01s WALL (       2 calls)
     mix_rho      :      0.00s CPU      0.00s WALL (       2 calls)

     Called by c_bands:
     init_us_2    :      0.35s CPU      0.38s WALL (    3584 calls)
     cegterg      :      3.06s CPU      3.27s WALL (    1024 calls)

     Called by sum_band:
     sum_band:wei :      0.00s CPU      0.00s WALL (       2 calls)
     sum_band:loo :      0.42s CPU      0.45s WALL (       2 calls)
     sum_band:buf :      0.01s CPU      0.01s WALL (    1024 calls)
     sum_band:ini :      0.12s CPU      0.12s WALL (    1024 calls)
     sum_band:cal :      0.02s CPU      0.03s WALL (    1024 calls)
     sum_band:bec :      0.00s CPU      0.00s WALL (    1024 calls)
     addusdens    :      0.01s CPU      0.01s WALL (       2 calls)
                                        0.00s GPU  (       2 calls)
     addusd:skk   :      0.00s CPU      0.00s WALL (       2 calls)
                                        0.00s GPU  (       2 calls)

     Called by *egterg:
     cdiaghg      :      0.20s CPU      0.22s WALL (    4986 calls)
     cegterg:over :      0.08s CPU      0.08s WALL (    4474 calls)
     cegterg:upda :      0.10s CPU      0.11s WALL (    4474 calls)
     cegterg:last :      0.13s CPU      0.14s WALL (    3505 calls)
     h_psi        :      2.81s CPU      2.99s WALL (    6010 calls)
     s_psi        :      0.12s CPU      0.12s WALL (    6010 calls)
     g_psi        :      0.03s CPU      0.04s WALL (    4474 calls)

     Called by h_psi:
     h_psi:calbec :      0.11s CPU      0.12s WALL (    6010 calls)
     vloc_psi     :      2.52s CPU      2.69s WALL (    6010 calls)
     add_vuspsi   :      0.12s CPU      0.13s WALL (    6010 calls)

     General routines
     calbec       :      0.17s CPU      0.17s WALL (    9594 calls)
     fft          :      0.13s CPU      0.13s WALL (      48 calls)
     ffts         :      0.00s CPU      0.00s WALL (       2 calls)
     fftw         :      2.18s CPU      2.32s WALL (   44244 calls)


     PWSCF        :      6.13s CPU      6.49s WALL


   This run was terminated on:  18:50:38   6May2024            

=------------------------------------------------------------------------------=
   JOB DONE.
=------------------------------------------------------------------------------=
