
     Program PWSCF v.7.3.1 starts on  6May2024 at 18:50:41 

     This program is part of the open-source Quantum ESPRESSO suite
     for quantum simulation of materials; please cite
         "P. Giannozzi et al., J. Phys.:Condens. Matter 21 395502 (2009);
         "P. Giannozzi et al., J. Phys.:Condens. Matter 29 465901 (2017);
         "P. Giannozzi et al., J. Chem. Phys. 152 154105 (2020);
          URL http://www.quantum-espresso.org", 
     in publications or presentations arising from this work. More details at
     http://www.quantum-espresso.org/quote

     Serial version
     2188 MiB available memory on the printing compute node when the environment starts

     Reading input from Be6.pw.in

     Current dimensions of program PWSCF are:
     Max number of different atomic species (ntypx) = 10
     Max number of k-points (npk) =  40000
     Max angular momentum in pseudopotentials (lmaxx) =  4


     G-vector sticks info
     --------------------
     sticks:   dense  smooth     PW     G-vecs:    dense   smooth      PW
     Sum         195     195     79                 3577     3577     879

     Using Slab Decomposition



     bravais-lattice index     =            0
     lattice parameter (alat)  =       4.4188  a.u.
     unit-cell volume          =     104.9404 (a.u.)^3
     number of atoms/cell      =            2
     number of atomic types    =            1
     number of electrons       =         4.00
     number of Kohn-Sham states=            4
     kinetic-energy cutoff     =      40.0000  Ry
     charge density cutoff     =     160.0000  Ry
     scf convergence threshold =      2.0E-02
     mixing beta               =       0.1000
     number of iterations used =            8  plain     mixing
     Exchange-correlation= PBE
                           (   1   4   3   4   0   0   0)

     celldm(1)=   4.418779  celldm(2)=   0.000000  celldm(3)=   0.000000
     celldm(4)=   0.000000  celldm(5)=   0.000000  celldm(6)=   0.000000

     crystal axes: (cart. coord. in units of alat)
               a(1) = (   0.997341   0.046300   0.056278 )  
               a(2) = (  -0.545849   0.760463  -0.038504 )  
               a(3) = (  -0.031413   0.037718   1.549795 )  

     reciprocal axes: (cart. coord. in units 2 pi/alat)
               b(1) = (  0.970178  0.696516  0.002713 )  
               b(2) = ( -0.057250  1.272268 -0.032124 )  
               b(3) = ( -0.036653  0.006316  0.644350 )  


     PseudoPot. # 1 for Be read from file:
     ../pseudo/Be.pbe-n-rrkjus_psl.1.0.0.UPF
     MD5 check sum: 734a25375992c446e1da9bf329ae4716
     Pseudo is Ultrasoft + core correction, Zval =  2.0
     Generated using &quot;atomic&quot; code by A. Dal Corso  v.6.6
     Using radial grid of 1041 points,  4 beta functions with: 
                l(1) =   0
                l(2) =   0
                l(3) =   1
                l(4) =   1
     Q(r) pseudized with 0 coefficients 


     atomic species   valence    mass     pseudopotential
     Be                2.00     9.01218     Be( 1.00)

     No symmetry found


                                    s                        frac. trans.

      isym =  1     identity                                     

 cryst.   s( 1) = (     1          0          0      )
                  (     0          1          0      )
                  (     0          0          1      )

 cart.    s( 1) = (  1.0000000 -0.0000000  0.0000000 )
                  (  0.0000000  1.0000000  0.0000000 )
                  (  0.0000000  0.0000000  1.0000000 )


   Cartesian axes

     site n.     atom                  positions (alat units)
         1        Be     tau(   1) = (   0.7496344   0.1372798   1.1451282  )
         2        Be     tau(   2) = (  -0.2664181   0.6996754   0.3815588  )

   Crystallographic axes

     site n.     atom                  positions (cryst. coord.)
         1        Be     tau(   1) = (  0.8260035  0.0949534  0.7112539  )
         2        Be     tau(   2) = (  0.2298973  0.8931695  0.2600414  )

     number of k points=   512  Fermi-Dirac smearing, width (Ry)=  0.0019
                       cart. coord. in units 2pi/alat
        k(    1) = (   0.0000000   0.0000000   0.0000000), wk =   0.0039062
        k(    2) = (  -0.0045816   0.0007895   0.0805437), wk =   0.0039062
        k(    3) = (  -0.0091632   0.0015790   0.1610875), wk =   0.0039062
        k(    4) = (  -0.0137448   0.0023684   0.2416312), wk =   0.0039062
        k(    5) = (   0.0183264  -0.0031579  -0.3221749), wk =   0.0039062
        k(    6) = (   0.0137448  -0.0023684  -0.2416312), wk =   0.0039062
        k(    7) = (   0.0091632  -0.0015790  -0.1610875), wk =   0.0039062
        k(    8) = (   0.0045816  -0.0007895  -0.0805437), wk =   0.0039062
        k(    9) = (  -0.0071563   0.1590335  -0.0040155), wk =   0.0039062
        k(   10) = (  -0.0117379   0.1598229   0.0765282), wk =   0.0039062
        k(   11) = (  -0.0163195   0.1606124   0.1570719), wk =   0.0039062
        k(   12) = (  -0.0209011   0.1614019   0.2376156), wk =   0.0039062
        k(   13) = (   0.0111701   0.1558755  -0.3261904), wk =   0.0039062
        k(   14) = (   0.0065885   0.1566650  -0.2456467), wk =   0.0039062
        k(   15) = (   0.0020069   0.1574545  -0.1651030), wk =   0.0039062
        k(   16) = (  -0.0025747   0.1582440  -0.0845593), wk =   0.0039062
        k(   17) = (  -0.0143126   0.3180669  -0.0080311), wk =   0.0039062
        k(   18) = (  -0.0188942   0.3188564   0.0725127), wk =   0.0039062
        k(   19) = (  -0.0234758   0.3196459   0.1530564), wk =   0.0039062
        k(   20) = (  -0.0280574   0.3204354   0.2336001), wk =   0.0039062
        k(   21) = (   0.0040138   0.3149090  -0.3302060), wk =   0.0039062
        k(   22) = (  -0.0005678   0.3156985  -0.2496623), wk =   0.0039062
        k(   23) = (  -0.0051494   0.3164879  -0.1691185), wk =   0.0039062
        k(   24) = (  -0.0097310   0.3172774  -0.0885748), wk =   0.0039062
        k(   25) = (  -0.0214689   0.4771004  -0.0120466), wk =   0.0039062
        k(   26) = (  -0.0260505   0.4778898   0.0684971), wk =   0.0039062
        k(   27) = (  -0.0306321   0.4786793   0.1490408), wk =   0.0039062
        k(   28) = (  -0.0352137   0.4794688   0.2295846), wk =   0.0039062
        k(   29) = (  -0.0031425   0.4739424  -0.3342215), wk =   0.0039062
        k(   30) = (  -0.0077241   0.4747319  -0.2536778), wk =   0.0039062
        k(   31) = (  -0.0123057   0.4755214  -0.1731341), wk =   0.0039062
        k(   32) = (  -0.0168873   0.4763109  -0.0925903), wk =   0.0039062
        k(   33) = (   0.0286252  -0.6361338   0.0160621), wk =   0.0039062
        k(   34) = (   0.0240436  -0.6353443   0.0966059), wk =   0.0039062
        k(   35) = (   0.0194620  -0.6345548   0.1771496), wk =   0.0039062
        k(   36) = (   0.0148804  -0.6337654   0.2576933), wk =   0.0039062
        k(   37) = (   0.0469516  -0.6392917  -0.3061128), wk =   0.0039062
        k(   38) = (   0.0423700  -0.6385023  -0.2255690), wk =   0.0039062
        k(   39) = (   0.0377884  -0.6377128  -0.1450253), wk =   0.0039062
        k(   40) = (   0.0332068  -0.6369233  -0.0644816), wk =   0.0039062
        k(   41) = (   0.0214689  -0.4771004   0.0120466), wk =   0.0039062
        k(   42) = (   0.0168873  -0.4763109   0.0925903), wk =   0.0039062
        k(   43) = (   0.0123057  -0.4755214   0.1731341), wk =   0.0039062
        k(   44) = (   0.0077241  -0.4747319   0.2536778), wk =   0.0039062
        k(   45) = (   0.0397953  -0.4802583  -0.3101283), wk =   0.0039062
        k(   46) = (   0.0352137  -0.4794688  -0.2295846), wk =   0.0039062
        k(   47) = (   0.0306321  -0.4786793  -0.1490408), wk =   0.0039062
        k(   48) = (   0.0260505  -0.4778898  -0.0684971), wk =   0.0039062
        k(   49) = (   0.0143126  -0.3180669   0.0080311), wk =   0.0039062
        k(   50) = (   0.0097310  -0.3172774   0.0885748), wk =   0.0039062
        k(   51) = (   0.0051494  -0.3164879   0.1691185), wk =   0.0039062
        k(   52) = (   0.0005678  -0.3156985   0.2496623), wk =   0.0039062
        k(   53) = (   0.0326390  -0.3212248  -0.3141438), wk =   0.0039062
        k(   54) = (   0.0280574  -0.3204354  -0.2336001), wk =   0.0039062
        k(   55) = (   0.0234758  -0.3196459  -0.1530564), wk =   0.0039062
        k(   56) = (   0.0188942  -0.3188564  -0.0725127), wk =   0.0039062
        k(   57) = (   0.0071563  -0.1590335   0.0040155), wk =   0.0039062
        k(   58) = (   0.0025747  -0.1582440   0.0845593), wk =   0.0039062
        k(   59) = (  -0.0020069  -0.1574545   0.1651030), wk =   0.0039062
        k(   60) = (  -0.0065885  -0.1566650   0.2456467), wk =   0.0039062
        k(   61) = (   0.0254827  -0.1621914  -0.3181594), wk =   0.0039062
        k(   62) = (   0.0209011  -0.1614019  -0.2376156), wk =   0.0039062
        k(   63) = (   0.0163195  -0.1606124  -0.1570719), wk =   0.0039062
        k(   64) = (   0.0117379  -0.1598229  -0.0765282), wk =   0.0039062
        k(   65) = (   0.1212723   0.0870645   0.0003391), wk =   0.0039062
        k(   66) = (   0.1166907   0.0878540   0.0808829), wk =   0.0039062
        k(   67) = (   0.1121091   0.0886435   0.1614266), wk =   0.0039062
        k(   68) = (   0.1075275   0.0894330   0.2419703), wk =   0.0039062
        k(   69) = (   0.1395987   0.0839066  -0.3218358), wk =   0.0039062
        k(   70) = (   0.1350171   0.0846961  -0.2412920), wk =   0.0039062
        k(   71) = (   0.1304355   0.0854856  -0.1607483), wk =   0.0039062
        k(   72) = (   0.1258539   0.0862750  -0.0802046), wk =   0.0039062
        k(   73) = (   0.1141160   0.2460980  -0.0036764), wk =   0.0039062
        k(   74) = (   0.1095344   0.2468875   0.0768673), wk =   0.0039062
        k(   75) = (   0.1049528   0.2476769   0.1574111), wk =   0.0039062
        k(   76) = (   0.1003712   0.2484664   0.2379548), wk =   0.0039062
        k(   77) = (   0.1324424   0.2429400  -0.3258513), wk =   0.0039062
        k(   78) = (   0.1278608   0.2437295  -0.2453076), wk =   0.0039062
        k(   79) = (   0.1232792   0.2445190  -0.1647639), wk =   0.0039062
        k(   80) = (   0.1186976   0.2453085  -0.0842201), wk =   0.0039062
        k(   81) = (   0.1069597   0.4051314  -0.0076919), wk =   0.0039062
        k(   82) = (   0.1023781   0.4059209   0.0728518), wk =   0.0039062
        k(   83) = (   0.0977965   0.4067104   0.1533955), wk =   0.0039062
        k(   84) = (   0.0932149   0.4074999   0.2339392), wk =   0.0039062
        k(   85) = (   0.1252861   0.4019735  -0.3298668), wk =   0.0039062
        k(   86) = (   0.1207045   0.4027630  -0.2493231), wk =   0.0039062
        k(   87) = (   0.1161229   0.4035525  -0.1687794), wk =   0.0039062
        k(   88) = (   0.1115413   0.4043419  -0.0882357), wk =   0.0039062
        k(   89) = (   0.0998034   0.5641649  -0.0117075), wk =   0.0039062
        k(   90) = (   0.0952218   0.5649544   0.0688363), wk =   0.0039062
        k(   91) = (   0.0906402   0.5657438   0.1493800), wk =   0.0039062
        k(   92) = (   0.0860586   0.5665333   0.2299237), wk =   0.0039062
        k(   93) = (   0.1181298   0.5610069  -0.3338824), wk =   0.0039062
        k(   94) = (   0.1135482   0.5617964  -0.2533387), wk =   0.0039062
        k(   95) = (   0.1089666   0.5625859  -0.1727949), wk =   0.0039062
        k(   96) = (   0.1043850   0.5633754  -0.0922512), wk =   0.0039062
        k(   97) = (   0.1498974  -0.5490693   0.0164013), wk =   0.0039062
        k(   98) = (   0.1453158  -0.5482798   0.0969450), wk =   0.0039062
        k(   99) = (   0.1407342  -0.5474903   0.1774887), wk =   0.0039062
        k(  100) = (   0.1361526  -0.5467008   0.2580325), wk =   0.0039062
        k(  101) = (   0.1682239  -0.5522272  -0.3057736), wk =   0.0039062
        k(  102) = (   0.1636423  -0.5514377  -0.2252299), wk =   0.0039062
        k(  103) = (   0.1590607  -0.5506483  -0.1446862), wk =   0.0039062
        k(  104) = (   0.1544790  -0.5498588  -0.0641424), wk =   0.0039062
        k(  105) = (   0.1427412  -0.3900358   0.0123857), wk =   0.0039062
        k(  106) = (   0.1381596  -0.3892464   0.0929295), wk =   0.0039062
        k(  107) = (   0.1335780  -0.3884569   0.1734732), wk =   0.0039062
        k(  108) = (   0.1289964  -0.3876674   0.2540169), wk =   0.0039062
        k(  109) = (   0.1610676  -0.3931938  -0.3097892), wk =   0.0039062
        k(  110) = (   0.1564860  -0.3924043  -0.2292454), wk =   0.0039062
        k(  111) = (   0.1519044  -0.3916148  -0.1487017), wk =   0.0039062
        k(  112) = (   0.1473228  -0.3908253  -0.0681580), wk =   0.0039062
        k(  113) = (   0.1355849  -0.2310024   0.0083702), wk =   0.0039062
        k(  114) = (   0.1310033  -0.2302129   0.0889139), wk =   0.0039062
        k(  115) = (   0.1264217  -0.2294234   0.1694577), wk =   0.0039062
        k(  116) = (   0.1218401  -0.2286339   0.2500014), wk =   0.0039062
        k(  117) = (   0.1539113  -0.2341603  -0.3138047), wk =   0.0039062
        k(  118) = (   0.1493297  -0.2333708  -0.2332610), wk =   0.0039062
        k(  119) = (   0.1447481  -0.2325814  -0.1527172), wk =   0.0039062
        k(  120) = (   0.1401665  -0.2317919  -0.0721735), wk =   0.0039062
        k(  121) = (   0.1284286  -0.0719689   0.0043547), wk =   0.0039062
        k(  122) = (   0.1238470  -0.0711794   0.0848984), wk =   0.0039062
        k(  123) = (   0.1192654  -0.0703900   0.1654421), wk =   0.0039062
        k(  124) = (   0.1146838  -0.0696005   0.2459859), wk =   0.0039062
        k(  125) = (   0.1467550  -0.0751269  -0.3178202), wk =   0.0039062
        k(  126) = (   0.1421734  -0.0743374  -0.2372765), wk =   0.0039062
        k(  127) = (   0.1375918  -0.0735479  -0.1567328), wk =   0.0039062
        k(  128) = (   0.1330102  -0.0727584  -0.0761891), wk =   0.0039062
        k(  129) = (   0.2425446   0.1741290   0.0006783), wk =   0.0039062
        k(  130) = (   0.2379630   0.1749185   0.0812220), wk =   0.0039062
        k(  131) = (   0.2333814   0.1757080   0.1617657), wk =   0.0039062
        k(  132) = (   0.2287998   0.1764975   0.2423095), wk =   0.0039062
        k(  133) = (   0.2608710   0.1709711  -0.3214966), wk =   0.0039062
        k(  134) = (   0.2562894   0.1717606  -0.2409529), wk =   0.0039062
        k(  135) = (   0.2517078   0.1725501  -0.1604092), wk =   0.0039062
        k(  136) = (   0.2471262   0.1733396  -0.0798655), wk =   0.0039062
        k(  137) = (   0.2353883   0.3331625  -0.0033373), wk =   0.0039062
        k(  138) = (   0.2308067   0.3339520   0.0772065), wk =   0.0039062
        k(  139) = (   0.2262251   0.3347415   0.1577502), wk =   0.0039062
        k(  140) = (   0.2216435   0.3355309   0.2382939), wk =   0.0039062
        k(  141) = (   0.2537147   0.3300046  -0.3255122), wk =   0.0039062
        k(  142) = (   0.2491331   0.3307940  -0.2449684), wk =   0.0039062
        k(  143) = (   0.2445515   0.3315835  -0.1644247), wk =   0.0039062
        k(  144) = (   0.2399699   0.3323730  -0.0838810), wk =   0.0039062
        k(  145) = (   0.2282320   0.4921959  -0.0073528), wk =   0.0039062
        k(  146) = (   0.2236504   0.4929854   0.0731909), wk =   0.0039062
        k(  147) = (   0.2190688   0.4937749   0.1537347), wk =   0.0039062
        k(  148) = (   0.2144872   0.4945644   0.2342784), wk =   0.0039062
        k(  149) = (   0.2465584   0.4890380  -0.3295277), wk =   0.0039062
        k(  150) = (   0.2419768   0.4898275  -0.2489840), wk =   0.0039062
        k(  151) = (   0.2373952   0.4906170  -0.1684403), wk =   0.0039062
        k(  152) = (   0.2328136   0.4914065  -0.0878965), wk =   0.0039062
        k(  153) = (   0.2210757   0.6512294  -0.0113683), wk =   0.0039062
        k(  154) = (   0.2164941   0.6520189   0.0691754), wk =   0.0039062
        k(  155) = (   0.2119125   0.6528084   0.1497191), wk =   0.0039062
        k(  156) = (   0.2073309   0.6535978   0.2302628), wk =   0.0039062
        k(  157) = (   0.2394021   0.6480715  -0.3335432), wk =   0.0039062
        k(  158) = (   0.2348205   0.6488609  -0.2529995), wk =   0.0039062
        k(  159) = (   0.2302389   0.6496504  -0.1724558), wk =   0.0039062
        k(  160) = (   0.2256573   0.6504399  -0.0919121), wk =   0.0039062
        k(  161) = (   0.2711697  -0.4620048   0.0167404), wk =   0.0039062
        k(  162) = (   0.2665881  -0.4612153   0.0972842), wk =   0.0039062
        k(  163) = (   0.2620065  -0.4604258   0.1778279), wk =   0.0039062
        k(  164) = (   0.2574249  -0.4596363   0.2583716), wk =   0.0039062
        k(  165) = (   0.2894961  -0.4651627  -0.3054345), wk =   0.0039062
        k(  166) = (   0.2849145  -0.4643732  -0.2248908), wk =   0.0039062
        k(  167) = (   0.2803329  -0.4635837  -0.1443470), wk =   0.0039062
        k(  168) = (   0.2757513  -0.4627943  -0.0638033), wk =   0.0039062
        k(  169) = (   0.2640134  -0.3029713   0.0127249), wk =   0.0039062
        k(  170) = (   0.2594318  -0.3021818   0.0932686), wk =   0.0039062
        k(  171) = (   0.2548502  -0.3013924   0.1738123), wk =   0.0039062
        k(  172) = (   0.2502686  -0.3006029   0.2543561), wk =   0.0039062
        k(  173) = (   0.2823399  -0.3061293  -0.3094500), wk =   0.0039062
        k(  174) = (   0.2777583  -0.3053398  -0.2289063), wk =   0.0039062
        k(  175) = (   0.2731767  -0.3045503  -0.1483626), wk =   0.0039062
        k(  176) = (   0.2685951  -0.3037608  -0.0678188), wk =   0.0039062
        k(  177) = (   0.2568572  -0.1439379   0.0087093), wk =   0.0039062
        k(  178) = (   0.2522756  -0.1431484   0.0892531), wk =   0.0039062
        k(  179) = (   0.2476940  -0.1423589   0.1697968), wk =   0.0039062
        k(  180) = (   0.2431124  -0.1415694   0.2503405), wk =   0.0039062
        k(  181) = (   0.2751836  -0.1470958  -0.3134656), wk =   0.0039062
        k(  182) = (   0.2706020  -0.1463063  -0.2329218), wk =   0.0039062
        k(  183) = (   0.2660204  -0.1455168  -0.1523781), wk =   0.0039062
        k(  184) = (   0.2614388  -0.1447273  -0.0718344), wk =   0.0039062
        k(  185) = (   0.2497009   0.0150956   0.0046938), wk =   0.0039062
        k(  186) = (   0.2451193   0.0158851   0.0852375), wk =   0.0039062
        k(  187) = (   0.2405377   0.0166746   0.1657813), wk =   0.0039062
        k(  188) = (   0.2359561   0.0174640   0.2463250), wk =   0.0039062
        k(  189) = (   0.2680273   0.0119377  -0.3174811), wk =   0.0039062
        k(  190) = (   0.2634457   0.0127271  -0.2369374), wk =   0.0039062
        k(  191) = (   0.2588641   0.0135166  -0.1563936), wk =   0.0039062
        k(  192) = (   0.2542825   0.0143061  -0.0758499), wk =   0.0039062
        k(  193) = (   0.3638169   0.2611936   0.0010174), wk =   0.0039062
        k(  194) = (   0.3592353   0.2619830   0.0815611), wk =   0.0039062
        k(  195) = (   0.3546537   0.2627725   0.1621049), wk =   0.0039062
        k(  196) = (   0.3500721   0.2635620   0.2426486), wk =   0.0039062
        k(  197) = (   0.3821433   0.2580356  -0.3211575), wk =   0.0039062
        k(  198) = (   0.3775617   0.2588251  -0.2406138), wk =   0.0039062
        k(  199) = (   0.3729801   0.2596146  -0.1600700), wk =   0.0039062
        k(  200) = (   0.3683985   0.2604041  -0.0795263), wk =   0.0039062
        k(  201) = (   0.3566606   0.4202270  -0.0029981), wk =   0.0039062
        k(  202) = (   0.3520790   0.4210165   0.0775456), wk =   0.0039062
        k(  203) = (   0.3474974   0.4218060   0.1580893), wk =   0.0039062
        k(  204) = (   0.3429158   0.4225955   0.2386331), wk =   0.0039062
        k(  205) = (   0.3749870   0.4170691  -0.3251730), wk =   0.0039062
        k(  206) = (   0.3704054   0.4178586  -0.2446293), wk =   0.0039062
        k(  207) = (   0.3658238   0.4186480  -0.1640856), wk =   0.0039062
        k(  208) = (   0.3612422   0.4194375  -0.0835418), wk =   0.0039062
        k(  209) = (   0.3495043   0.5792605  -0.0070137), wk =   0.0039062
        k(  210) = (   0.3449227   0.5800499   0.0735301), wk =   0.0039062
        k(  211) = (   0.3403411   0.5808394   0.1540738), wk =   0.0039062
        k(  212) = (   0.3357595   0.5816289   0.2346175), wk =   0.0039062
        k(  213) = (   0.3678307   0.5761025  -0.3291886), wk =   0.0039062
        k(  214) = (   0.3632491   0.5768920  -0.2486448), wk =   0.0039062
        k(  215) = (   0.3586675   0.5776815  -0.1681011), wk =   0.0039062
        k(  216) = (   0.3540859   0.5784710  -0.0875574), wk =   0.0039062
        k(  217) = (   0.3423480   0.7382939  -0.0110292), wk =   0.0039062
        k(  218) = (   0.3377664   0.7390834   0.0695145), wk =   0.0039062
        k(  219) = (   0.3331848   0.7398729   0.1500583), wk =   0.0039062
        k(  220) = (   0.3286032   0.7406624   0.2306020), wk =   0.0039062
        k(  221) = (   0.3606744   0.7351360  -0.3332041), wk =   0.0039062
        k(  222) = (   0.3560928   0.7359255  -0.2526604), wk =   0.0039062
        k(  223) = (   0.3515112   0.7367150  -0.1721167), wk =   0.0039062
        k(  224) = (   0.3469296   0.7375044  -0.0915729), wk =   0.0039062
        k(  225) = (   0.3924420  -0.3749403   0.0170796), wk =   0.0039062
        k(  226) = (   0.3878604  -0.3741508   0.0976233), wk =   0.0039062
        k(  227) = (   0.3832788  -0.3733613   0.1781670), wk =   0.0039062
        k(  228) = (   0.3786972  -0.3725718   0.2587107), wk =   0.0039062
        k(  229) = (   0.4107684  -0.3780982  -0.3050953), wk =   0.0039062
        k(  230) = (   0.4061868  -0.3773087  -0.2245516), wk =   0.0039062
        k(  231) = (   0.4016052  -0.3765192  -0.1440079), wk =   0.0039062
        k(  232) = (   0.3970236  -0.3757297  -0.0634642), wk =   0.0039062
        k(  233) = (   0.3852857  -0.2159068   0.0130640), wk =   0.0039062
        k(  234) = (   0.3807041  -0.2151173   0.0936078), wk =   0.0039062
        k(  235) = (   0.3761225  -0.2143278   0.1741515), wk =   0.0039062
        k(  236) = (   0.3715409  -0.2135383   0.2546952), wk =   0.0039062
        k(  237) = (   0.4036121  -0.2190647  -0.3091109), wk =   0.0039062
        k(  238) = (   0.3990305  -0.2182752  -0.2285672), wk =   0.0039062
        k(  239) = (   0.3944489  -0.2174858  -0.1480234), wk =   0.0039062
        k(  240) = (   0.3898673  -0.2166963  -0.0674797), wk =   0.0039062
        k(  241) = (   0.3781295  -0.0568733   0.0090485), wk =   0.0039062
        k(  242) = (   0.3735478  -0.0560839   0.0895922), wk =   0.0039062
        k(  243) = (   0.3689662  -0.0552944   0.1701359), wk =   0.0039062
        k(  244) = (   0.3643846  -0.0545049   0.2506797), wk =   0.0039062
        k(  245) = (   0.3964559  -0.0600313  -0.3131264), wk =   0.0039062
        k(  246) = (   0.3918743  -0.0592418  -0.2325827), wk =   0.0039062
        k(  247) = (   0.3872927  -0.0584523  -0.1520390), wk =   0.0039062
        k(  248) = (   0.3827111  -0.0576628  -0.0714952), wk =   0.0039062
        k(  249) = (   0.3709732   0.1021601   0.0050330), wk =   0.0039062
        k(  250) = (   0.3663916   0.1029496   0.0855767), wk =   0.0039062
        k(  251) = (   0.3618100   0.1037391   0.1661204), wk =   0.0039062
        k(  252) = (   0.3572284   0.1045286   0.2466641), wk =   0.0039062
        k(  253) = (   0.3892996   0.0990022  -0.3171420), wk =   0.0039062
        k(  254) = (   0.3847180   0.0997917  -0.2365982), wk =   0.0039062
        k(  255) = (   0.3801364   0.1005811  -0.1560545), wk =   0.0039062
        k(  256) = (   0.3755548   0.1013706  -0.0755108), wk =   0.0039062
        k(  257) = (  -0.4850892  -0.3482581  -0.0013566), wk =   0.0039062
        k(  258) = (  -0.4896708  -0.3474686   0.0791872), wk =   0.0039062
        k(  259) = (  -0.4942524  -0.3466791   0.1597309), wk =   0.0039062
        k(  260) = (  -0.4988340  -0.3458896   0.2402746), wk =   0.0039062
        k(  261) = (  -0.4667628  -0.3514160  -0.3235315), wk =   0.0039062
        k(  262) = (  -0.4713444  -0.3506265  -0.2429877), wk =   0.0039062
        k(  263) = (  -0.4759260  -0.3498370  -0.1624440), wk =   0.0039062
        k(  264) = (  -0.4805076  -0.3490476  -0.0819003), wk =   0.0039062
        k(  265) = (  -0.4922455  -0.1892246  -0.0053721), wk =   0.0039062
        k(  266) = (  -0.4968271  -0.1884351   0.0751716), wk =   0.0039062
        k(  267) = (  -0.5014087  -0.1876457   0.1557154), wk =   0.0039062
        k(  268) = (  -0.5059903  -0.1868562   0.2362591), wk =   0.0039062
        k(  269) = (  -0.4739190  -0.1923826  -0.3275470), wk =   0.0039062
        k(  270) = (  -0.4785006  -0.1915931  -0.2470033), wk =   0.0039062
        k(  271) = (  -0.4830822  -0.1908036  -0.1664595), wk =   0.0039062
        k(  272) = (  -0.4876638  -0.1900141  -0.0859158), wk =   0.0039062
        k(  273) = (  -0.4994017  -0.0301912  -0.0093876), wk =   0.0039062
        k(  274) = (  -0.5039833  -0.0294017   0.0711561), wk =   0.0039062
        k(  275) = (  -0.5085649  -0.0286122   0.1516998), wk =   0.0039062
        k(  276) = (  -0.5131465  -0.0278227   0.2322436), wk =   0.0039062
        k(  277) = (  -0.4810753  -0.0333491  -0.3315625), wk =   0.0039062
        k(  278) = (  -0.4856569  -0.0325596  -0.2510188), wk =   0.0039062
        k(  279) = (  -0.4902385  -0.0317701  -0.1704751), wk =   0.0039062
        k(  280) = (  -0.4948201  -0.0309807  -0.0899314), wk =   0.0039062
        k(  281) = (  -0.5065580   0.1288423  -0.0134032), wk =   0.0039062
        k(  282) = (  -0.5111396   0.1296318   0.0671406), wk =   0.0039062
        k(  283) = (  -0.5157212   0.1304212   0.1476843), wk =   0.0039062
        k(  284) = (  -0.5203028   0.1312107   0.2282280), wk =   0.0039062
        k(  285) = (  -0.4882316   0.1256843  -0.3355781), wk =   0.0039062
        k(  286) = (  -0.4928132   0.1264738  -0.2550343), wk =   0.0039062
        k(  287) = (  -0.4973948   0.1272633  -0.1744906), wk =   0.0039062
        k(  288) = (  -0.5019764   0.1280528  -0.0939469), wk =   0.0039062
        k(  289) = (  -0.4564640  -0.9843919   0.0147056), wk =   0.0039062
        k(  290) = (  -0.4610456  -0.9836024   0.0952493), wk =   0.0039062
        k(  291) = (  -0.4656272  -0.9828129   0.1757930), wk =   0.0039062
        k(  292) = (  -0.4702088  -0.9820234   0.2563368), wk =   0.0039062
        k(  293) = (  -0.4381376  -0.9875498  -0.3074693), wk =   0.0039062
        k(  294) = (  -0.4427192  -0.9867603  -0.2269256), wk =   0.0039062
        k(  295) = (  -0.4473008  -0.9859709  -0.1463819), wk =   0.0039062
        k(  296) = (  -0.4518824  -0.9851814  -0.0658381), wk =   0.0039062
        k(  297) = (  -0.4636203  -0.8253584   0.0106901), wk =   0.0039062
        k(  298) = (  -0.4682019  -0.8245690   0.0912338), wk =   0.0039062
        k(  299) = (  -0.4727835  -0.8237795   0.1717775), wk =   0.0039062
        k(  300) = (  -0.4773651  -0.8229900   0.2523212), wk =   0.0039062
        k(  301) = (  -0.4452939  -0.8285164  -0.3114848), wk =   0.0039062
        k(  302) = (  -0.4498755  -0.8277269  -0.2309411), wk =   0.0039062
        k(  303) = (  -0.4544571  -0.8269374  -0.1503974), wk =   0.0039062
        k(  304) = (  -0.4590387  -0.8261479  -0.0698537), wk =   0.0039062
        k(  305) = (  -0.4707766  -0.6663250   0.0066745), wk =   0.0039062
        k(  306) = (  -0.4753582  -0.6655355   0.0872182), wk =   0.0039062
        k(  307) = (  -0.4799398  -0.6647460   0.1677620), wk =   0.0039062
        k(  308) = (  -0.4845214  -0.6639565   0.2483057), wk =   0.0039062
        k(  309) = (  -0.4524502  -0.6694829  -0.3155004), wk =   0.0039062
        k(  310) = (  -0.4570318  -0.6686934  -0.2349567), wk =   0.0039062
        k(  311) = (  -0.4616134  -0.6679040  -0.1544129), wk =   0.0039062
        k(  312) = (  -0.4661950  -0.6671145  -0.0738692), wk =   0.0039062
        k(  313) = (  -0.4779329  -0.5072915   0.0026590), wk =   0.0039062
        k(  314) = (  -0.4825145  -0.5065020   0.0832027), wk =   0.0039062
        k(  315) = (  -0.4870961  -0.5057126   0.1637464), wk =   0.0039062
        k(  316) = (  -0.4916777  -0.5049231   0.2442902), wk =   0.0039062
        k(  317) = (  -0.4596065  -0.5104495  -0.3195159), wk =   0.0039062
        k(  318) = (  -0.4641881  -0.5096600  -0.2389722), wk =   0.0039062
        k(  319) = (  -0.4687697  -0.5088705  -0.1584285), wk =   0.0039062
        k(  320) = (  -0.4733513  -0.5080810  -0.0778847), wk =   0.0039062
        k(  321) = (  -0.3638169  -0.2611936  -0.0010174), wk =   0.0039062
        k(  322) = (  -0.3683985  -0.2604041   0.0795263), wk =   0.0039062
        k(  323) = (  -0.3729801  -0.2596146   0.1600700), wk =   0.0039062
        k(  324) = (  -0.3775617  -0.2588251   0.2406138), wk =   0.0039062
        k(  325) = (  -0.3454905  -0.2643515  -0.3231923), wk =   0.0039062
        k(  326) = (  -0.3500721  -0.2635620  -0.2426486), wk =   0.0039062
        k(  327) = (  -0.3546537  -0.2627725  -0.1621049), wk =   0.0039062
        k(  328) = (  -0.3592353  -0.2619830  -0.0815611), wk =   0.0039062
        k(  329) = (  -0.3709732  -0.1021601  -0.0050330), wk =   0.0039062
        k(  330) = (  -0.3755548  -0.1013706   0.0755108), wk =   0.0039062
        k(  331) = (  -0.3801364  -0.1005811   0.1560545), wk =   0.0039062
        k(  332) = (  -0.3847180  -0.0997917   0.2365982), wk =   0.0039062
        k(  333) = (  -0.3526468  -0.1053180  -0.3272079), wk =   0.0039062
        k(  334) = (  -0.3572284  -0.1045286  -0.2466641), wk =   0.0039062
        k(  335) = (  -0.3618100  -0.1037391  -0.1661204), wk =   0.0039062
        k(  336) = (  -0.3663916  -0.1029496  -0.0855767), wk =   0.0039062
        k(  337) = (  -0.3781295   0.0568733  -0.0090485), wk =   0.0039062
        k(  338) = (  -0.3827111   0.0576628   0.0714952), wk =   0.0039062
        k(  339) = (  -0.3872927   0.0584523   0.1520390), wk =   0.0039062
        k(  340) = (  -0.3918743   0.0592418   0.2325827), wk =   0.0039062
        k(  341) = (  -0.3598030   0.0537154  -0.3312234), wk =   0.0039062
        k(  342) = (  -0.3643846   0.0545049  -0.2506797), wk =   0.0039062
        k(  343) = (  -0.3689662   0.0552944  -0.1701359), wk =   0.0039062
        k(  344) = (  -0.3735478   0.0560839  -0.0895922), wk =   0.0039062
        k(  345) = (  -0.3852857   0.2159068  -0.0130640), wk =   0.0039062
        k(  346) = (  -0.3898673   0.2166963   0.0674797), wk =   0.0039062
        k(  347) = (  -0.3944489   0.2174858   0.1480234), wk =   0.0039062
        k(  348) = (  -0.3990305   0.2182752   0.2285672), wk =   0.0039062
        k(  349) = (  -0.3669593   0.2127489  -0.3352389), wk =   0.0039062
        k(  350) = (  -0.3715409   0.2135383  -0.2546952), wk =   0.0039062
        k(  351) = (  -0.3761225   0.2143278  -0.1741515), wk =   0.0039062
        k(  352) = (  -0.3807041   0.2151173  -0.0936078), wk =   0.0039062
        k(  353) = (  -0.3351917  -0.8973274   0.0150447), wk =   0.0039062
        k(  354) = (  -0.3397733  -0.8965379   0.0955885), wk =   0.0039062
        k(  355) = (  -0.3443549  -0.8957484   0.1761322), wk =   0.0039062
        k(  356) = (  -0.3489365  -0.8949589   0.2566759), wk =   0.0039062
        k(  357) = (  -0.3168653  -0.9004853  -0.3071302), wk =   0.0039062
        k(  358) = (  -0.3214469  -0.8996958  -0.2265864), wk =   0.0039062
        k(  359) = (  -0.3260285  -0.8989063  -0.1460427), wk =   0.0039062
        k(  360) = (  -0.3306101  -0.8981169  -0.0654990), wk =   0.0039062
        k(  361) = (  -0.3423480  -0.7382939   0.0110292), wk =   0.0039062
        k(  362) = (  -0.3469296  -0.7375044   0.0915729), wk =   0.0039062
        k(  363) = (  -0.3515112  -0.7367150   0.1721167), wk =   0.0039062
        k(  364) = (  -0.3560928  -0.7359255   0.2526604), wk =   0.0039062
        k(  365) = (  -0.3240216  -0.7414518  -0.3111457), wk =   0.0039062
        k(  366) = (  -0.3286032  -0.7406624  -0.2306020), wk =   0.0039062
        k(  367) = (  -0.3331848  -0.7398729  -0.1500583), wk =   0.0039062
        k(  368) = (  -0.3377664  -0.7390834  -0.0695145), wk =   0.0039062
        k(  369) = (  -0.3495043  -0.5792605   0.0070137), wk =   0.0039062
        k(  370) = (  -0.3540859  -0.5784710   0.0875574), wk =   0.0039062
        k(  371) = (  -0.3586675  -0.5776815   0.1681011), wk =   0.0039062
        k(  372) = (  -0.3632491  -0.5768920   0.2486448), wk =   0.0039062
        k(  373) = (  -0.3311779  -0.5824184  -0.3151612), wk =   0.0039062
        k(  374) = (  -0.3357595  -0.5816289  -0.2346175), wk =   0.0039062
        k(  375) = (  -0.3403411  -0.5808394  -0.1540738), wk =   0.0039062
        k(  376) = (  -0.3449227  -0.5800499  -0.0735301), wk =   0.0039062
        k(  377) = (  -0.3566606  -0.4202270   0.0029981), wk =   0.0039062
        k(  378) = (  -0.3612422  -0.4194375   0.0835418), wk =   0.0039062
        k(  379) = (  -0.3658238  -0.4186480   0.1640856), wk =   0.0039062
        k(  380) = (  -0.3704054  -0.4178586   0.2446293), wk =   0.0039062
        k(  381) = (  -0.3383342  -0.4233849  -0.3191768), wk =   0.0039062
        k(  382) = (  -0.3429158  -0.4225955  -0.2386331), wk =   0.0039062
        k(  383) = (  -0.3474974  -0.4218060  -0.1580893), wk =   0.0039062
        k(  384) = (  -0.3520790  -0.4210165  -0.0775456), wk =   0.0039062
        k(  385) = (  -0.2425446  -0.1741290  -0.0006783), wk =   0.0039062
        k(  386) = (  -0.2471262  -0.1733396   0.0798655), wk =   0.0039062
        k(  387) = (  -0.2517078  -0.1725501   0.1604092), wk =   0.0039062
        k(  388) = (  -0.2562894  -0.1717606   0.2409529), wk =   0.0039062
        k(  389) = (  -0.2242182  -0.1772870  -0.3228532), wk =   0.0039062
        k(  390) = (  -0.2287998  -0.1764975  -0.2423095), wk =   0.0039062
        k(  391) = (  -0.2333814  -0.1757080  -0.1617657), wk =   0.0039062
        k(  392) = (  -0.2379630  -0.1749185  -0.0812220), wk =   0.0039062
        k(  393) = (  -0.2497009  -0.0150956  -0.0046938), wk =   0.0039062
        k(  394) = (  -0.2542825  -0.0143061   0.0758499), wk =   0.0039062
        k(  395) = (  -0.2588641  -0.0135166   0.1563936), wk =   0.0039062
        k(  396) = (  -0.2634457  -0.0127271   0.2369374), wk =   0.0039062
        k(  397) = (  -0.2313745  -0.0182535  -0.3268687), wk =   0.0039062
        k(  398) = (  -0.2359561  -0.0174640  -0.2463250), wk =   0.0039062
        k(  399) = (  -0.2405377  -0.0166746  -0.1657813), wk =   0.0039062
        k(  400) = (  -0.2451193  -0.0158851  -0.0852375), wk =   0.0039062
        k(  401) = (  -0.2568572   0.1439379  -0.0087093), wk =   0.0039062
        k(  402) = (  -0.2614388   0.1447273   0.0718344), wk =   0.0039062
        k(  403) = (  -0.2660204   0.1455168   0.1523781), wk =   0.0039062
        k(  404) = (  -0.2706020   0.1463063   0.2329218), wk =   0.0039062
        k(  405) = (  -0.2385308   0.1407799  -0.3308843), wk =   0.0039062
        k(  406) = (  -0.2431124   0.1415694  -0.2503405), wk =   0.0039062
        k(  407) = (  -0.2476940   0.1423589  -0.1697968), wk =   0.0039062
        k(  408) = (  -0.2522756   0.1431484  -0.0892531), wk =   0.0039062
        k(  409) = (  -0.2640134   0.3029713  -0.0127249), wk =   0.0039062
        k(  410) = (  -0.2685951   0.3037608   0.0678188), wk =   0.0039062
        k(  411) = (  -0.2731767   0.3045503   0.1483626), wk =   0.0039062
        k(  412) = (  -0.2777583   0.3053398   0.2289063), wk =   0.0039062
        k(  413) = (  -0.2456870   0.2998134  -0.3348998), wk =   0.0039062
        k(  414) = (  -0.2502686   0.3006029  -0.2543561), wk =   0.0039062
        k(  415) = (  -0.2548502   0.3013924  -0.1738123), wk =   0.0039062
        k(  416) = (  -0.2594318   0.3021818  -0.0932686), wk =   0.0039062
        k(  417) = (  -0.2139194  -0.8102628   0.0153839), wk =   0.0039062
        k(  418) = (  -0.2185010  -0.8094734   0.0959276), wk =   0.0039062
        k(  419) = (  -0.2230826  -0.8086839   0.1764713), wk =   0.0039062
        k(  420) = (  -0.2276642  -0.8078944   0.2570151), wk =   0.0039062
        k(  421) = (  -0.1955930  -0.8134208  -0.3067910), wk =   0.0039062
        k(  422) = (  -0.2001746  -0.8126313  -0.2262473), wk =   0.0039062
        k(  423) = (  -0.2047562  -0.8118418  -0.1457036), wk =   0.0039062
        k(  424) = (  -0.2093378  -0.8110523  -0.0651599), wk =   0.0039062
        k(  425) = (  -0.2210757  -0.6512294   0.0113683), wk =   0.0039062
        k(  426) = (  -0.2256573  -0.6504399   0.0919121), wk =   0.0039062
        k(  427) = (  -0.2302389  -0.6496504   0.1724558), wk =   0.0039062
        k(  428) = (  -0.2348205  -0.6488609   0.2529995), wk =   0.0039062
        k(  429) = (  -0.2027493  -0.6543873  -0.3108066), wk =   0.0039062
        k(  430) = (  -0.2073309  -0.6535978  -0.2302628), wk =   0.0039062
        k(  431) = (  -0.2119125  -0.6528084  -0.1497191), wk =   0.0039062
        k(  432) = (  -0.2164941  -0.6520189  -0.0691754), wk =   0.0039062
        k(  433) = (  -0.2282320  -0.4921959   0.0073528), wk =   0.0039062
        k(  434) = (  -0.2328136  -0.4914065   0.0878965), wk =   0.0039062
        k(  435) = (  -0.2373952  -0.4906170   0.1684403), wk =   0.0039062
        k(  436) = (  -0.2419768  -0.4898275   0.2489840), wk =   0.0039062
        k(  437) = (  -0.2099056  -0.4953539  -0.3148221), wk =   0.0039062
        k(  438) = (  -0.2144872  -0.4945644  -0.2342784), wk =   0.0039062
        k(  439) = (  -0.2190688  -0.4937749  -0.1537347), wk =   0.0039062
        k(  440) = (  -0.2236504  -0.4929854  -0.0731909), wk =   0.0039062
        k(  441) = (  -0.2353883  -0.3331625   0.0033373), wk =   0.0039062
        k(  442) = (  -0.2399699  -0.3323730   0.0838810), wk =   0.0039062
        k(  443) = (  -0.2445515  -0.3315835   0.1644247), wk =   0.0039062
        k(  444) = (  -0.2491331  -0.3307940   0.2449684), wk =   0.0039062
        k(  445) = (  -0.2170619  -0.3363204  -0.3188376), wk =   0.0039062
        k(  446) = (  -0.2216435  -0.3355309  -0.2382939), wk =   0.0039062
        k(  447) = (  -0.2262251  -0.3347415  -0.1577502), wk =   0.0039062
        k(  448) = (  -0.2308067  -0.3339520  -0.0772065), wk =   0.0039062
        k(  449) = (  -0.1212723  -0.0870645  -0.0003391), wk =   0.0039062
        k(  450) = (  -0.1258539  -0.0862750   0.0802046), wk =   0.0039062
        k(  451) = (  -0.1304355  -0.0854856   0.1607483), wk =   0.0039062
        k(  452) = (  -0.1350171  -0.0846961   0.2412920), wk =   0.0039062
        k(  453) = (  -0.1029459  -0.0902225  -0.3225140), wk =   0.0039062
        k(  454) = (  -0.1075275  -0.0894330  -0.2419703), wk =   0.0039062
        k(  455) = (  -0.1121091  -0.0886435  -0.1614266), wk =   0.0039062
        k(  456) = (  -0.1166907  -0.0878540  -0.0808829), wk =   0.0039062
        k(  457) = (  -0.1284286   0.0719689  -0.0043547), wk =   0.0039062
        k(  458) = (  -0.1330102   0.0727584   0.0761891), wk =   0.0039062
        k(  459) = (  -0.1375918   0.0735479   0.1567328), wk =   0.0039062
        k(  460) = (  -0.1421734   0.0743374   0.2372765), wk =   0.0039062
        k(  461) = (  -0.1101022   0.0688110  -0.3265296), wk =   0.0039062
        k(  462) = (  -0.1146838   0.0696005  -0.2459859), wk =   0.0039062
        k(  463) = (  -0.1192654   0.0703900  -0.1654421), wk =   0.0039062
        k(  464) = (  -0.1238470   0.0711794  -0.0848984), wk =   0.0039062
        k(  465) = (  -0.1355849   0.2310024  -0.0083702), wk =   0.0039062
        k(  466) = (  -0.1401665   0.2317919   0.0721735), wk =   0.0039062
        k(  467) = (  -0.1447481   0.2325814   0.1527172), wk =   0.0039062
        k(  468) = (  -0.1493297   0.2333708   0.2332610), wk =   0.0039062
        k(  469) = (  -0.1172585   0.2278445  -0.3305451), wk =   0.0039062
        k(  470) = (  -0.1218401   0.2286339  -0.2500014), wk =   0.0039062
        k(  471) = (  -0.1264217   0.2294234  -0.1694577), wk =   0.0039062
        k(  472) = (  -0.1310033   0.2302129  -0.0889139), wk =   0.0039062
        k(  473) = (  -0.1427412   0.3900358  -0.0123857), wk =   0.0039062
        k(  474) = (  -0.1473228   0.3908253   0.0681580), wk =   0.0039062
        k(  475) = (  -0.1519044   0.3916148   0.1487017), wk =   0.0039062
        k(  476) = (  -0.1564860   0.3924043   0.2292454), wk =   0.0039062
        k(  477) = (  -0.1244148   0.3868779  -0.3345607), wk =   0.0039062
        k(  478) = (  -0.1289964   0.3876674  -0.2540169), wk =   0.0039062
        k(  479) = (  -0.1335780   0.3884569  -0.1734732), wk =   0.0039062
        k(  480) = (  -0.1381596   0.3892464  -0.0929295), wk =   0.0039062
        k(  481) = (  -0.0926471  -0.7231983   0.0157230), wk =   0.0039062
        k(  482) = (  -0.0972287  -0.7224088   0.0962667), wk =   0.0039062
        k(  483) = (  -0.1018103  -0.7216194   0.1768105), wk =   0.0039062
        k(  484) = (  -0.1063919  -0.7208299   0.2573542), wk =   0.0039062
        k(  485) = (  -0.0743207  -0.7263563  -0.3064519), wk =   0.0039062
        k(  486) = (  -0.0789023  -0.7255668  -0.2259082), wk =   0.0039062
        k(  487) = (  -0.0834839  -0.7247773  -0.1453644), wk =   0.0039062
        k(  488) = (  -0.0880655  -0.7239878  -0.0648207), wk =   0.0039062
        k(  489) = (  -0.0998034  -0.5641649   0.0117075), wk =   0.0039062
        k(  490) = (  -0.1043850  -0.5633754   0.0922512), wk =   0.0039062
        k(  491) = (  -0.1089666  -0.5625859   0.1727949), wk =   0.0039062
        k(  492) = (  -0.1135482  -0.5617964   0.2533387), wk =   0.0039062
        k(  493) = (  -0.0814770  -0.5673228  -0.3104674), wk =   0.0039062
        k(  494) = (  -0.0860586  -0.5665333  -0.2299237), wk =   0.0039062
        k(  495) = (  -0.0906402  -0.5657438  -0.1493800), wk =   0.0039062
        k(  496) = (  -0.0952218  -0.5649544  -0.0688363), wk =   0.0039062
        k(  497) = (  -0.1069597  -0.4051314   0.0076919), wk =   0.0039062
        k(  498) = (  -0.1115413  -0.4043419   0.0882357), wk =   0.0039062
        k(  499) = (  -0.1161229  -0.4035525   0.1687794), wk =   0.0039062
        k(  500) = (  -0.1207045  -0.4027630   0.2493231), wk =   0.0039062
        k(  501) = (  -0.0886333  -0.4082894  -0.3144830), wk =   0.0039062
        k(  502) = (  -0.0932149  -0.4074999  -0.2339392), wk =   0.0039062
        k(  503) = (  -0.0977965  -0.4067104  -0.1533955), wk =   0.0039062
        k(  504) = (  -0.1023781  -0.4059209  -0.0728518), wk =   0.0039062
        k(  505) = (  -0.1141160  -0.2460980   0.0036764), wk =   0.0039062
        k(  506) = (  -0.1186976  -0.2453085   0.0842201), wk =   0.0039062
        k(  507) = (  -0.1232792  -0.2445190   0.1647639), wk =   0.0039062
        k(  508) = (  -0.1278608  -0.2437295   0.2453076), wk =   0.0039062
        k(  509) = (  -0.0957896  -0.2492559  -0.3184985), wk =   0.0039062
        k(  510) = (  -0.1003712  -0.2484664  -0.2379548), wk =   0.0039062
        k(  511) = (  -0.1049528  -0.2476769  -0.1574111), wk =   0.0039062
        k(  512) = (  -0.1095344  -0.2468875  -0.0768673), wk =   0.0039062

                       cryst. coord.
        k(    1) = (   0.0000000   0.0000000   0.0000000), wk =   0.0039062
        k(    2) = (   0.0000000  -0.0000000   0.1250000), wk =   0.0039062
        k(    3) = (   0.0000000  -0.0000000   0.2500000), wk =   0.0039062
        k(    4) = (   0.0000000   0.0000000   0.3750000), wk =   0.0039062
        k(    5) = (   0.0000000   0.0000000  -0.5000000), wk =   0.0039062
        k(    6) = (  -0.0000000   0.0000000  -0.3750000), wk =   0.0039062
        k(    7) = (   0.0000000   0.0000000  -0.2500000), wk =   0.0039062
        k(    8) = (   0.0000000   0.0000000  -0.1250000), wk =   0.0039062
        k(    9) = (   0.0000000   0.1250000   0.0000000), wk =   0.0039062
        k(   10) = (   0.0000000   0.1250000   0.1250000), wk =   0.0039062
        k(   11) = (   0.0000000   0.1250000   0.2500000), wk =   0.0039062
        k(   12) = (   0.0000000   0.1250000   0.3750000), wk =   0.0039062
        k(   13) = (  -0.0000000   0.1250000  -0.5000000), wk =   0.0039062
        k(   14) = (  -0.0000000   0.1250000  -0.3750000), wk =   0.0039062
        k(   15) = (   0.0000000   0.1250000  -0.2500000), wk =   0.0039062
        k(   16) = (   0.0000000   0.1250000  -0.1250000), wk =   0.0039062
        k(   17) = (   0.0000000   0.2500000   0.0000000), wk =   0.0039062
        k(   18) = (   0.0000000   0.2500000   0.1250000), wk =   0.0039062
        k(   19) = (   0.0000000   0.2500000   0.2500000), wk =   0.0039062
        k(   20) = (   0.0000000   0.2500000   0.3750000), wk =   0.0039062
        k(   21) = (   0.0000000   0.2500000  -0.5000000), wk =   0.0039062
        k(   22) = (   0.0000000   0.2500000  -0.3750000), wk =   0.0039062
        k(   23) = (   0.0000000   0.2500000  -0.2500000), wk =   0.0039062
        k(   24) = (   0.0000000   0.2500000  -0.1250000), wk =   0.0039062
        k(   25) = (  -0.0000000   0.3750000   0.0000000), wk =   0.0039062
        k(   26) = (   0.0000000   0.3750000   0.1250000), wk =   0.0039062
        k(   27) = (   0.0000000   0.3750000   0.2500000), wk =   0.0039062
        k(   28) = (   0.0000000   0.3750000   0.3750000), wk =   0.0039062
        k(   29) = (   0.0000000   0.3750000  -0.5000000), wk =   0.0039062
        k(   30) = (   0.0000000   0.3750000  -0.3750000), wk =   0.0039062
        k(   31) = (  -0.0000000   0.3750000  -0.2500000), wk =   0.0039062
        k(   32) = (   0.0000000   0.3750000  -0.1250000), wk =   0.0039062
        k(   33) = (  -0.0000000  -0.5000000   0.0000000), wk =   0.0039062
        k(   34) = (  -0.0000000  -0.5000000   0.1250000), wk =   0.0039062
        k(   35) = (  -0.0000000  -0.5000000   0.2500000), wk =   0.0039062
        k(   36) = (   0.0000000  -0.5000000   0.3750000), wk =   0.0039062
        k(   37) = (   0.0000000  -0.5000000  -0.5000000), wk =   0.0039062
        k(   38) = (  -0.0000000  -0.5000000  -0.3750000), wk =   0.0039062
        k(   39) = (  -0.0000000  -0.5000000  -0.2500000), wk =   0.0039062
        k(   40) = (  -0.0000000  -0.5000000  -0.1250000), wk =   0.0039062
        k(   41) = (   0.0000000  -0.3750000  -0.0000000), wk =   0.0039062
        k(   42) = (  -0.0000000  -0.3750000   0.1250000), wk =   0.0039062
        k(   43) = (   0.0000000  -0.3750000   0.2500000), wk =   0.0039062
        k(   44) = (   0.0000000  -0.3750000   0.3750000), wk =   0.0039062
        k(   45) = (  -0.0000000  -0.3750000  -0.5000000), wk =   0.0039062
        k(   46) = (  -0.0000000  -0.3750000  -0.3750000), wk =   0.0039062
        k(   47) = (  -0.0000000  -0.3750000  -0.2500000), wk =   0.0039062
        k(   48) = (  -0.0000000  -0.3750000  -0.1250000), wk =   0.0039062
        k(   49) = (  -0.0000000  -0.2500000   0.0000000), wk =   0.0039062
        k(   50) = (  -0.0000000  -0.2500000   0.1250000), wk =   0.0039062
        k(   51) = (   0.0000000  -0.2500000   0.2500000), wk =   0.0039062
        k(   52) = (  -0.0000000  -0.2500000   0.3750000), wk =   0.0039062
        k(   53) = (  -0.0000000  -0.2500000  -0.5000000), wk =   0.0039062
        k(   54) = (  -0.0000000  -0.2500000  -0.3750000), wk =   0.0039062
        k(   55) = (   0.0000000  -0.2500000  -0.2500000), wk =   0.0039062
        k(   56) = (  -0.0000000  -0.2500000  -0.1250000), wk =   0.0039062
        k(   57) = (  -0.0000000  -0.1250000   0.0000000), wk =   0.0039062
        k(   58) = (   0.0000000  -0.1250000   0.1250000), wk =   0.0039062
        k(   59) = (   0.0000000  -0.1250000   0.2500000), wk =   0.0039062
        k(   60) = (   0.0000000  -0.1250000   0.3750000), wk =   0.0039062
        k(   61) = (   0.0000000  -0.1250000  -0.5000000), wk =   0.0039062
        k(   62) = (  -0.0000000  -0.1250000  -0.3750000), wk =   0.0039062
        k(   63) = (  -0.0000000  -0.1250000  -0.2500000), wk =   0.0039062
        k(   64) = (   0.0000000  -0.1250000  -0.1250000), wk =   0.0039062
        k(   65) = (   0.1250000   0.0000000   0.0000000), wk =   0.0039062
        k(   66) = (   0.1250000   0.0000000   0.1250000), wk =   0.0039062
        k(   67) = (   0.1250000   0.0000000   0.2500000), wk =   0.0039062
        k(   68) = (   0.1250000   0.0000000   0.3750000), wk =   0.0039062
        k(   69) = (   0.1250000   0.0000000  -0.5000000), wk =   0.0039062
        k(   70) = (   0.1250000   0.0000000  -0.3750000), wk =   0.0039062
        k(   71) = (   0.1250000  -0.0000000  -0.2500000), wk =   0.0039062
        k(   72) = (   0.1250000   0.0000000  -0.1250000), wk =   0.0039062
        k(   73) = (   0.1250000   0.1250000   0.0000000), wk =   0.0039062
        k(   74) = (   0.1250000   0.1250000   0.1250000), wk =   0.0039062
        k(   75) = (   0.1250000   0.1250000   0.2500000), wk =   0.0039062
        k(   76) = (   0.1250000   0.1250000   0.3750000), wk =   0.0039062
        k(   77) = (   0.1250000   0.1250000  -0.5000000), wk =   0.0039062
        k(   78) = (   0.1250000   0.1250000  -0.3750000), wk =   0.0039062
        k(   79) = (   0.1250000   0.1250000  -0.2500000), wk =   0.0039062
        k(   80) = (   0.1250000   0.1250000  -0.1250000), wk =   0.0039062
        k(   81) = (   0.1250000   0.2500000   0.0000000), wk =   0.0039062
        k(   82) = (   0.1250000   0.2500000   0.1250000), wk =   0.0039062
        k(   83) = (   0.1250000   0.2500000   0.2500000), wk =   0.0039062
        k(   84) = (   0.1250000   0.2500000   0.3750000), wk =   0.0039062
        k(   85) = (   0.1250000   0.2500000  -0.5000000), wk =   0.0039062
        k(   86) = (   0.1250000   0.2500000  -0.3750000), wk =   0.0039062
        k(   87) = (   0.1250000   0.2500000  -0.2500000), wk =   0.0039062
        k(   88) = (   0.1250000   0.2500000  -0.1250000), wk =   0.0039062
        k(   89) = (   0.1250000   0.3750000  -0.0000000), wk =   0.0039062
        k(   90) = (   0.1250000   0.3750000   0.1250000), wk =   0.0039062
        k(   91) = (   0.1250000   0.3750000   0.2500000), wk =   0.0039062
        k(   92) = (   0.1250000   0.3750000   0.3750000), wk =   0.0039062
        k(   93) = (   0.1250000   0.3750000  -0.5000000), wk =   0.0039062
        k(   94) = (   0.1250000   0.3750000  -0.3750000), wk =   0.0039062
        k(   95) = (   0.1250000   0.3750000  -0.2500000), wk =   0.0039062
        k(   96) = (   0.1250000   0.3750000  -0.1250000), wk =   0.0039062
        k(   97) = (   0.1250000  -0.5000000   0.0000000), wk =   0.0039062
        k(   98) = (   0.1250000  -0.5000000   0.1250000), wk =   0.0039062
        k(   99) = (   0.1250000  -0.5000000   0.2500000), wk =   0.0039062
        k(  100) = (   0.1250000  -0.5000000   0.3750000), wk =   0.0039062
        k(  101) = (   0.1250000  -0.5000000  -0.5000000), wk =   0.0039062
        k(  102) = (   0.1250000  -0.5000000  -0.3750000), wk =   0.0039062
        k(  103) = (   0.1250000  -0.5000000  -0.2500000), wk =   0.0039062
        k(  104) = (   0.1250000  -0.5000000  -0.1250000), wk =   0.0039062
        k(  105) = (   0.1250000  -0.3750000   0.0000000), wk =   0.0039062
        k(  106) = (   0.1250000  -0.3750000   0.1250000), wk =   0.0039062
        k(  107) = (   0.1250000  -0.3750000   0.2500000), wk =   0.0039062
        k(  108) = (   0.1250000  -0.3750000   0.3750000), wk =   0.0039062
        k(  109) = (   0.1250000  -0.3750000  -0.5000000), wk =   0.0039062
        k(  110) = (   0.1250000  -0.3750000  -0.3750000), wk =   0.0039062
        k(  111) = (   0.1250000  -0.3750000  -0.2500000), wk =   0.0039062
        k(  112) = (   0.1250000  -0.3750000  -0.1250000), wk =   0.0039062
        k(  113) = (   0.1250000  -0.2500000   0.0000000), wk =   0.0039062
        k(  114) = (   0.1250000  -0.2500000   0.1250000), wk =   0.0039062
        k(  115) = (   0.1250000  -0.2500000   0.2500000), wk =   0.0039062
        k(  116) = (   0.1250000  -0.2500000   0.3750000), wk =   0.0039062
        k(  117) = (   0.1250000  -0.2500000  -0.5000000), wk =   0.0039062
        k(  118) = (   0.1250000  -0.2500000  -0.3750000), wk =   0.0039062
        k(  119) = (   0.1250000  -0.2500000  -0.2500000), wk =   0.0039062
        k(  120) = (   0.1250000  -0.2500000  -0.1250000), wk =   0.0039062
        k(  121) = (   0.1250000  -0.1250000   0.0000000), wk =   0.0039062
        k(  122) = (   0.1250000  -0.1250000   0.1250000), wk =   0.0039062
        k(  123) = (   0.1250000  -0.1250000   0.2500000), wk =   0.0039062
        k(  124) = (   0.1250000  -0.1250000   0.3750000), wk =   0.0039062
        k(  125) = (   0.1250000  -0.1250000  -0.5000000), wk =   0.0039062
        k(  126) = (   0.1250000  -0.1250000  -0.3750000), wk =   0.0039062
        k(  127) = (   0.1250000  -0.1250000  -0.2500000), wk =   0.0039062
        k(  128) = (   0.1250000  -0.1250000  -0.1250000), wk =   0.0039062
        k(  129) = (   0.2500000   0.0000000   0.0000000), wk =   0.0039062
        k(  130) = (   0.2500000   0.0000000   0.1250000), wk =   0.0039062
        k(  131) = (   0.2500000   0.0000000   0.2500000), wk =   0.0039062
        k(  132) = (   0.2500000   0.0000000   0.3750000), wk =   0.0039062
        k(  133) = (   0.2500000  -0.0000000  -0.5000000), wk =   0.0039062
        k(  134) = (   0.2500000   0.0000000  -0.3750000), wk =   0.0039062
        k(  135) = (   0.2500000   0.0000000  -0.2500000), wk =   0.0039062
        k(  136) = (   0.2500000   0.0000000  -0.1250000), wk =   0.0039062
        k(  137) = (   0.2500000   0.1250000  -0.0000000), wk =   0.0039062
        k(  138) = (   0.2500000   0.1250000   0.1250000), wk =   0.0039062
        k(  139) = (   0.2500000   0.1250000   0.2500000), wk =   0.0039062
        k(  140) = (   0.2500000   0.1250000   0.3750000), wk =   0.0039062
        k(  141) = (   0.2500000   0.1250000  -0.5000000), wk =   0.0039062
        k(  142) = (   0.2500000   0.1250000  -0.3750000), wk =   0.0039062
        k(  143) = (   0.2500000   0.1250000  -0.2500000), wk =   0.0039062
        k(  144) = (   0.2500000   0.1250000  -0.1250000), wk =   0.0039062
        k(  145) = (   0.2500000   0.2500000   0.0000000), wk =   0.0039062
        k(  146) = (   0.2500000   0.2500000   0.1250000), wk =   0.0039062
        k(  147) = (   0.2500000   0.2500000   0.2500000), wk =   0.0039062
        k(  148) = (   0.2500000   0.2500000   0.3750000), wk =   0.0039062
        k(  149) = (   0.2500000   0.2500000  -0.5000000), wk =   0.0039062
        k(  150) = (   0.2500000   0.2500000  -0.3750000), wk =   0.0039062
        k(  151) = (   0.2500000   0.2500000  -0.2500000), wk =   0.0039062
        k(  152) = (   0.2500000   0.2500000  -0.1250000), wk =   0.0039062
        k(  153) = (   0.2500000   0.3750000   0.0000000), wk =   0.0039062
        k(  154) = (   0.2500000   0.3750000   0.1250000), wk =   0.0039062
        k(  155) = (   0.2500000   0.3750000   0.2500000), wk =   0.0039062
        k(  156) = (   0.2500000   0.3750000   0.3750000), wk =   0.0039062
        k(  157) = (   0.2500000   0.3750000  -0.5000000), wk =   0.0039062
        k(  158) = (   0.2500000   0.3750000  -0.3750000), wk =   0.0039062
        k(  159) = (   0.2500000   0.3750000  -0.2500000), wk =   0.0039062
        k(  160) = (   0.2500000   0.3750000  -0.1250000), wk =   0.0039062
        k(  161) = (   0.2500000  -0.5000000   0.0000000), wk =   0.0039062
        k(  162) = (   0.2500000  -0.5000000   0.1250000), wk =   0.0039062
        k(  163) = (   0.2500000  -0.5000000   0.2500000), wk =   0.0039062
        k(  164) = (   0.2500000  -0.5000000   0.3750000), wk =   0.0039062
        k(  165) = (   0.2500000  -0.5000000  -0.5000000), wk =   0.0039062
        k(  166) = (   0.2500000  -0.5000000  -0.3750000), wk =   0.0039062
        k(  167) = (   0.2500000  -0.5000000  -0.2500000), wk =   0.0039062
        k(  168) = (   0.2500000  -0.5000000  -0.1250000), wk =   0.0039062
        k(  169) = (   0.2500000  -0.3750000   0.0000000), wk =   0.0039062
        k(  170) = (   0.2500000  -0.3750000   0.1250000), wk =   0.0039062
        k(  171) = (   0.2500000  -0.3750000   0.2500000), wk =   0.0039062
        k(  172) = (   0.2500000  -0.3750000   0.3750000), wk =   0.0039062
        k(  173) = (   0.2500000  -0.3750000  -0.5000000), wk =   0.0039062
        k(  174) = (   0.2500000  -0.3750000  -0.3750000), wk =   0.0039062
        k(  175) = (   0.2500000  -0.3750000  -0.2500000), wk =   0.0039062
        k(  176) = (   0.2500000  -0.3750000  -0.1250000), wk =   0.0039062
        k(  177) = (   0.2500000  -0.2500000   0.0000000), wk =   0.0039062
        k(  178) = (   0.2500000  -0.2500000   0.1250000), wk =   0.0039062
        k(  179) = (   0.2500000  -0.2500000   0.2500000), wk =   0.0039062
        k(  180) = (   0.2500000  -0.2500000   0.3750000), wk =   0.0039062
        k(  181) = (   0.2500000  -0.2500000  -0.5000000), wk =   0.0039062
        k(  182) = (   0.2500000  -0.2500000  -0.3750000), wk =   0.0039062
        k(  183) = (   0.2500000  -0.2500000  -0.2500000), wk =   0.0039062
        k(  184) = (   0.2500000  -0.2500000  -0.1250000), wk =   0.0039062
        k(  185) = (   0.2500000  -0.1250000   0.0000000), wk =   0.0039062
        k(  186) = (   0.2500000  -0.1250000   0.1250000), wk =   0.0039062
        k(  187) = (   0.2500000  -0.1250000   0.2500000), wk =   0.0039062
        k(  188) = (   0.2500000  -0.1250000   0.3750000), wk =   0.0039062
        k(  189) = (   0.2500000  -0.1250000  -0.5000000), wk =   0.0039062
        k(  190) = (   0.2500000  -0.1250000  -0.3750000), wk =   0.0039062
        k(  191) = (   0.2500000  -0.1250000  -0.2500000), wk =   0.0039062
        k(  192) = (   0.2500000  -0.1250000  -0.1250000), wk =   0.0039062
        k(  193) = (   0.3750000   0.0000000   0.0000000), wk =   0.0039062
        k(  194) = (   0.3750000   0.0000000   0.1250000), wk =   0.0039062
        k(  195) = (   0.3750000   0.0000000   0.2500000), wk =   0.0039062
        k(  196) = (   0.3750000   0.0000000   0.3750000), wk =   0.0039062
        k(  197) = (   0.3750000   0.0000000  -0.5000000), wk =   0.0039062
        k(  198) = (   0.3750000   0.0000000  -0.3750000), wk =   0.0039062
        k(  199) = (   0.3750000   0.0000000  -0.2500000), wk =   0.0039062
        k(  200) = (   0.3750000   0.0000000  -0.1250000), wk =   0.0039062
        k(  201) = (   0.3750000   0.1250000   0.0000000), wk =   0.0039062
        k(  202) = (   0.3750000   0.1250000   0.1250000), wk =   0.0039062
        k(  203) = (   0.3750000   0.1250000   0.2500000), wk =   0.0039062
        k(  204) = (   0.3750000   0.1250000   0.3750000), wk =   0.0039062
        k(  205) = (   0.3750000   0.1250000  -0.5000000), wk =   0.0039062
        k(  206) = (   0.3750000   0.1250000  -0.3750000), wk =   0.0039062
        k(  207) = (   0.3750000   0.1250000  -0.2500000), wk =   0.0039062
        k(  208) = (   0.3750000   0.1250000  -0.1250000), wk =   0.0039062
        k(  209) = (   0.3750000   0.2500000   0.0000000), wk =   0.0039062
        k(  210) = (   0.3750000   0.2500000   0.1250000), wk =   0.0039062
        k(  211) = (   0.3750000   0.2500000   0.2500000), wk =   0.0039062
        k(  212) = (   0.3750000   0.2500000   0.3750000), wk =   0.0039062
        k(  213) = (   0.3750000   0.2500000  -0.5000000), wk =   0.0039062
        k(  214) = (   0.3750000   0.2500000  -0.3750000), wk =   0.0039062
        k(  215) = (   0.3750000   0.2500000  -0.2500000), wk =   0.0039062
        k(  216) = (   0.3750000   0.2500000  -0.1250000), wk =   0.0039062
        k(  217) = (   0.3750000   0.3750000   0.0000000), wk =   0.0039062
        k(  218) = (   0.3750000   0.3750000   0.1250000), wk =   0.0039062
        k(  219) = (   0.3750000   0.3750000   0.2500000), wk =   0.0039062
        k(  220) = (   0.3750000   0.3750000   0.3750000), wk =   0.0039062
        k(  221) = (   0.3750000   0.3750000  -0.5000000), wk =   0.0039062
        k(  222) = (   0.3750000   0.3750000  -0.3750000), wk =   0.0039062
        k(  223) = (   0.3750000   0.3750000  -0.2500000), wk =   0.0039062
        k(  224) = (   0.3750000   0.3750000  -0.1250000), wk =   0.0039062
        k(  225) = (   0.3750000  -0.5000000   0.0000000), wk =   0.0039062
        k(  226) = (   0.3750000  -0.5000000   0.1250000), wk =   0.0039062
        k(  227) = (   0.3750000  -0.5000000   0.2500000), wk =   0.0039062
        k(  228) = (   0.3750000  -0.5000000   0.3750000), wk =   0.0039062
        k(  229) = (   0.3750000  -0.5000000  -0.5000000), wk =   0.0039062
        k(  230) = (   0.3750000  -0.5000000  -0.3750000), wk =   0.0039062
        k(  231) = (   0.3750000  -0.5000000  -0.2500000), wk =   0.0039062
        k(  232) = (   0.3750000  -0.5000000  -0.1250000), wk =   0.0039062
        k(  233) = (   0.3750000  -0.3750000   0.0000000), wk =   0.0039062
        k(  234) = (   0.3750000  -0.3750000   0.1250000), wk =   0.0039062
        k(  235) = (   0.3750000  -0.3750000   0.2500000), wk =   0.0039062
        k(  236) = (   0.3750000  -0.3750000   0.3750000), wk =   0.0039062
        k(  237) = (   0.3750000  -0.3750000  -0.5000000), wk =   0.0039062
        k(  238) = (   0.3750000  -0.3750000  -0.3750000), wk =   0.0039062
        k(  239) = (   0.3750000  -0.3750000  -0.2500000), wk =   0.0039062
        k(  240) = (   0.3750000  -0.3750000  -0.1250000), wk =   0.0039062
        k(  241) = (   0.3750000  -0.2500000   0.0000000), wk =   0.0039062
        k(  242) = (   0.3750000  -0.2500000   0.1250000), wk =   0.0039062
        k(  243) = (   0.3750000  -0.2500000   0.2500000), wk =   0.0039062
        k(  244) = (   0.3750000  -0.2500000   0.3750000), wk =   0.0039062
        k(  245) = (   0.3750000  -0.2500000  -0.5000000), wk =   0.0039062
        k(  246) = (   0.3750000  -0.2500000  -0.3750000), wk =   0.0039062
        k(  247) = (   0.3750000  -0.2500000  -0.2500000), wk =   0.0039062
        k(  248) = (   0.3750000  -0.2500000  -0.1250000), wk =   0.0039062
        k(  249) = (   0.3750000  -0.1250000   0.0000000), wk =   0.0039062
        k(  250) = (   0.3750000  -0.1250000   0.1250000), wk =   0.0039062
        k(  251) = (   0.3750000  -0.1250000   0.2500000), wk =   0.0039062
        k(  252) = (   0.3750000  -0.1250000   0.3750000), wk =   0.0039062
        k(  253) = (   0.3750000  -0.1250000  -0.5000000), wk =   0.0039062
        k(  254) = (   0.3750000  -0.1250000  -0.3750000), wk =   0.0039062
        k(  255) = (   0.3750000  -0.1250000  -0.2500000), wk =   0.0039062
        k(  256) = (   0.3750000  -0.1250000  -0.1250000), wk =   0.0039062
        k(  257) = (  -0.5000000  -0.0000000  -0.0000000), wk =   0.0039062
        k(  258) = (  -0.5000000  -0.0000000   0.1250000), wk =   0.0039062
        k(  259) = (  -0.5000000  -0.0000000   0.2500000), wk =   0.0039062
        k(  260) = (  -0.5000000  -0.0000000   0.3750000), wk =   0.0039062
        k(  261) = (  -0.5000000  -0.0000000  -0.5000000), wk =   0.0039062
        k(  262) = (  -0.5000000  -0.0000000  -0.3750000), wk =   0.0039062
        k(  263) = (  -0.5000000  -0.0000000  -0.2500000), wk =   0.0039062
        k(  264) = (  -0.5000000  -0.0000000  -0.1250000), wk =   0.0039062
        k(  265) = (  -0.5000000   0.1250000  -0.0000000), wk =   0.0039062
        k(  266) = (  -0.5000000   0.1250000   0.1250000), wk =   0.0039062
        k(  267) = (  -0.5000000   0.1250000   0.2500000), wk =   0.0039062
        k(  268) = (  -0.5000000   0.1250000   0.3750000), wk =   0.0039062
        k(  269) = (  -0.5000000   0.1250000  -0.5000000), wk =   0.0039062
        k(  270) = (  -0.5000000   0.1250000  -0.3750000), wk =   0.0039062
        k(  271) = (  -0.5000000   0.1250000  -0.2500000), wk =   0.0039062
        k(  272) = (  -0.5000000   0.1250000  -0.1250000), wk =   0.0039062
        k(  273) = (  -0.5000000   0.2500000   0.0000000), wk =   0.0039062
        k(  274) = (  -0.5000000   0.2500000   0.1250000), wk =   0.0039062
        k(  275) = (  -0.5000000   0.2500000   0.2500000), wk =   0.0039062
        k(  276) = (  -0.5000000   0.2500000   0.3750000), wk =   0.0039062
        k(  277) = (  -0.5000000   0.2500000  -0.5000000), wk =   0.0039062
        k(  278) = (  -0.5000000   0.2500000  -0.3750000), wk =   0.0039062
        k(  279) = (  -0.5000000   0.2500000  -0.2500000), wk =   0.0039062
        k(  280) = (  -0.5000000   0.2500000  -0.1250000), wk =   0.0039062
        k(  281) = (  -0.5000000   0.3750000   0.0000000), wk =   0.0039062
        k(  282) = (  -0.5000000   0.3750000   0.1250000), wk =   0.0039062
        k(  283) = (  -0.5000000   0.3750000   0.2500000), wk =   0.0039062
        k(  284) = (  -0.5000000   0.3750000   0.3750000), wk =   0.0039062
        k(  285) = (  -0.5000000   0.3750000  -0.5000000), wk =   0.0039062
        k(  286) = (  -0.5000000   0.3750000  -0.3750000), wk =   0.0039062
        k(  287) = (  -0.5000000   0.3750000  -0.2500000), wk =   0.0039062
        k(  288) = (  -0.5000000   0.3750000  -0.1250000), wk =   0.0039062
        k(  289) = (  -0.5000000  -0.5000000  -0.0000000), wk =   0.0039062
        k(  290) = (  -0.5000000  -0.5000000   0.1250000), wk =   0.0039062
        k(  291) = (  -0.5000000  -0.5000000   0.2500000), wk =   0.0039062
        k(  292) = (  -0.5000000  -0.5000000   0.3750000), wk =   0.0039062
        k(  293) = (  -0.5000000  -0.5000000  -0.5000000), wk =   0.0039062
        k(  294) = (  -0.5000000  -0.5000000  -0.3750000), wk =   0.0039062
        k(  295) = (  -0.5000000  -0.5000000  -0.2500000), wk =   0.0039062
        k(  296) = (  -0.5000000  -0.5000000  -0.1250000), wk =   0.0039062
        k(  297) = (  -0.5000000  -0.3750000  -0.0000000), wk =   0.0039062
        k(  298) = (  -0.5000000  -0.3750000   0.1250000), wk =   0.0039062
        k(  299) = (  -0.5000000  -0.3750000   0.2500000), wk =   0.0039062
        k(  300) = (  -0.5000000  -0.3750000   0.3750000), wk =   0.0039062
        k(  301) = (  -0.5000000  -0.3750000  -0.5000000), wk =   0.0039062
        k(  302) = (  -0.5000000  -0.3750000  -0.3750000), wk =   0.0039062
        k(  303) = (  -0.5000000  -0.3750000  -0.2500000), wk =   0.0039062
        k(  304) = (  -0.5000000  -0.3750000  -0.1250000), wk =   0.0039062
        k(  305) = (  -0.5000000  -0.2500000   0.0000000), wk =   0.0039062
        k(  306) = (  -0.5000000  -0.2500000   0.1250000), wk =   0.0039062
        k(  307) = (  -0.5000000  -0.2500000   0.2500000), wk =   0.0039062
        k(  308) = (  -0.5000000  -0.2500000   0.3750000), wk =   0.0039062
        k(  309) = (  -0.5000000  -0.2500000  -0.5000000), wk =   0.0039062
        k(  310) = (  -0.5000000  -0.2500000  -0.3750000), wk =   0.0039062
        k(  311) = (  -0.5000000  -0.2500000  -0.2500000), wk =   0.0039062
        k(  312) = (  -0.5000000  -0.2500000  -0.1250000), wk =   0.0039062
        k(  313) = (  -0.5000000  -0.1250000  -0.0000000), wk =   0.0039062
        k(  314) = (  -0.5000000  -0.1250000   0.1250000), wk =   0.0039062
        k(  315) = (  -0.5000000  -0.1250000   0.2500000), wk =   0.0039062
        k(  316) = (  -0.5000000  -0.1250000   0.3750000), wk =   0.0039062
        k(  317) = (  -0.5000000  -0.1250000  -0.5000000), wk =   0.0039062
        k(  318) = (  -0.5000000  -0.1250000  -0.3750000), wk =   0.0039062
        k(  319) = (  -0.5000000  -0.1250000  -0.2500000), wk =   0.0039062
        k(  320) = (  -0.5000000  -0.1250000  -0.1250000), wk =   0.0039062
        k(  321) = (  -0.3750000  -0.0000000  -0.0000000), wk =   0.0039062
        k(  322) = (  -0.3750000  -0.0000000   0.1250000), wk =   0.0039062
        k(  323) = (  -0.3750000  -0.0000000   0.2500000), wk =   0.0039062
        k(  324) = (  -0.3750000  -0.0000000   0.3750000), wk =   0.0039062
        k(  325) = (  -0.3750000  -0.0000000  -0.5000000), wk =   0.0039062
        k(  326) = (  -0.3750000  -0.0000000  -0.3750000), wk =   0.0039062
        k(  327) = (  -0.3750000  -0.0000000  -0.2500000), wk =   0.0039062
        k(  328) = (  -0.3750000  -0.0000000  -0.1250000), wk =   0.0039062
        k(  329) = (  -0.3750000   0.1250000  -0.0000000), wk =   0.0039062
        k(  330) = (  -0.3750000   0.1250000   0.1250000), wk =   0.0039062
        k(  331) = (  -0.3750000   0.1250000   0.2500000), wk =   0.0039062
        k(  332) = (  -0.3750000   0.1250000   0.3750000), wk =   0.0039062
        k(  333) = (  -0.3750000   0.1250000  -0.5000000), wk =   0.0039062
        k(  334) = (  -0.3750000   0.1250000  -0.3750000), wk =   0.0039062
        k(  335) = (  -0.3750000   0.1250000  -0.2500000), wk =   0.0039062
        k(  336) = (  -0.3750000   0.1250000  -0.1250000), wk =   0.0039062
        k(  337) = (  -0.3750000   0.2500000  -0.0000000), wk =   0.0039062
        k(  338) = (  -0.3750000   0.2500000   0.1250000), wk =   0.0039062
        k(  339) = (  -0.3750000   0.2500000   0.2500000), wk =   0.0039062
        k(  340) = (  -0.3750000   0.2500000   0.3750000), wk =   0.0039062
        k(  341) = (  -0.3750000   0.2500000  -0.5000000), wk =   0.0039062
        k(  342) = (  -0.3750000   0.2500000  -0.3750000), wk =   0.0039062
        k(  343) = (  -0.3750000   0.2500000  -0.2500000), wk =   0.0039062
        k(  344) = (  -0.3750000   0.2500000  -0.1250000), wk =   0.0039062
        k(  345) = (  -0.3750000   0.3750000   0.0000000), wk =   0.0039062
        k(  346) = (  -0.3750000   0.3750000   0.1250000), wk =   0.0039062
        k(  347) = (  -0.3750000   0.3750000   0.2500000), wk =   0.0039062
        k(  348) = (  -0.3750000   0.3750000   0.3750000), wk =   0.0039062
        k(  349) = (  -0.3750000   0.3750000  -0.5000000), wk =   0.0039062
        k(  350) = (  -0.3750000   0.3750000  -0.3750000), wk =   0.0039062
        k(  351) = (  -0.3750000   0.3750000  -0.2500000), wk =   0.0039062
        k(  352) = (  -0.3750000   0.3750000  -0.1250000), wk =   0.0039062
        k(  353) = (  -0.3750000  -0.5000000  -0.0000000), wk =   0.0039062
        k(  354) = (  -0.3750000  -0.5000000   0.1250000), wk =   0.0039062
        k(  355) = (  -0.3750000  -0.5000000   0.2500000), wk =   0.0039062
        k(  356) = (  -0.3750000  -0.5000000   0.3750000), wk =   0.0039062
        k(  357) = (  -0.3750000  -0.5000000  -0.5000000), wk =   0.0039062
        k(  358) = (  -0.3750000  -0.5000000  -0.3750000), wk =   0.0039062
        k(  359) = (  -0.3750000  -0.5000000  -0.2500000), wk =   0.0039062
        k(  360) = (  -0.3750000  -0.5000000  -0.1250000), wk =   0.0039062
        k(  361) = (  -0.3750000  -0.3750000   0.0000000), wk =   0.0039062
        k(  362) = (  -0.3750000  -0.3750000   0.1250000), wk =   0.0039062
        k(  363) = (  -0.3750000  -0.3750000   0.2500000), wk =   0.0039062
        k(  364) = (  -0.3750000  -0.3750000   0.3750000), wk =   0.0039062
        k(  365) = (  -0.3750000  -0.3750000  -0.5000000), wk =   0.0039062
        k(  366) = (  -0.3750000  -0.3750000  -0.3750000), wk =   0.0039062
        k(  367) = (  -0.3750000  -0.3750000  -0.2500000), wk =   0.0039062
        k(  368) = (  -0.3750000  -0.3750000  -0.1250000), wk =   0.0039062
        k(  369) = (  -0.3750000  -0.2500000  -0.0000000), wk =   0.0039062
        k(  370) = (  -0.3750000  -0.2500000   0.1250000), wk =   0.0039062
        k(  371) = (  -0.3750000  -0.2500000   0.2500000), wk =   0.0039062
        k(  372) = (  -0.3750000  -0.2500000   0.3750000), wk =   0.0039062
        k(  373) = (  -0.3750000  -0.2500000  -0.5000000), wk =   0.0039062
        k(  374) = (  -0.3750000  -0.2500000  -0.3750000), wk =   0.0039062
        k(  375) = (  -0.3750000  -0.2500000  -0.2500000), wk =   0.0039062
        k(  376) = (  -0.3750000  -0.2500000  -0.1250000), wk =   0.0039062
        k(  377) = (  -0.3750000  -0.1250000  -0.0000000), wk =   0.0039062
        k(  378) = (  -0.3750000  -0.1250000   0.1250000), wk =   0.0039062
        k(  379) = (  -0.3750000  -0.1250000   0.2500000), wk =   0.0039062
        k(  380) = (  -0.3750000  -0.1250000   0.3750000), wk =   0.0039062
        k(  381) = (  -0.3750000  -0.1250000  -0.5000000), wk =   0.0039062
        k(  382) = (  -0.3750000  -0.1250000  -0.3750000), wk =   0.0039062
        k(  383) = (  -0.3750000  -0.1250000  -0.2500000), wk =   0.0039062
        k(  384) = (  -0.3750000  -0.1250000  -0.1250000), wk =   0.0039062
        k(  385) = (  -0.2500000  -0.0000000  -0.0000000), wk =   0.0039062
        k(  386) = (  -0.2500000  -0.0000000   0.1250000), wk =   0.0039062
        k(  387) = (  -0.2500000  -0.0000000   0.2500000), wk =   0.0039062
        k(  388) = (  -0.2500000  -0.0000000   0.3750000), wk =   0.0039062
        k(  389) = (  -0.2500000  -0.0000000  -0.5000000), wk =   0.0039062
        k(  390) = (  -0.2500000  -0.0000000  -0.3750000), wk =   0.0039062
        k(  391) = (  -0.2500000  -0.0000000  -0.2500000), wk =   0.0039062
        k(  392) = (  -0.2500000  -0.0000000  -0.1250000), wk =   0.0039062
        k(  393) = (  -0.2500000   0.1250000   0.0000000), wk =   0.0039062
        k(  394) = (  -0.2500000   0.1250000   0.1250000), wk =   0.0039062
        k(  395) = (  -0.2500000   0.1250000   0.2500000), wk =   0.0039062
        k(  396) = (  -0.2500000   0.1250000   0.3750000), wk =   0.0039062
        k(  397) = (  -0.2500000   0.1250000  -0.5000000), wk =   0.0039062
        k(  398) = (  -0.2500000   0.1250000  -0.3750000), wk =   0.0039062
        k(  399) = (  -0.2500000   0.1250000  -0.2500000), wk =   0.0039062
        k(  400) = (  -0.2500000   0.1250000  -0.1250000), wk =   0.0039062
        k(  401) = (  -0.2500000   0.2500000   0.0000000), wk =   0.0039062
        k(  402) = (  -0.2500000   0.2500000   0.1250000), wk =   0.0039062
        k(  403) = (  -0.2500000   0.2500000   0.2500000), wk =   0.0039062
        k(  404) = (  -0.2500000   0.2500000   0.3750000), wk =   0.0039062
        k(  405) = (  -0.2500000   0.2500000  -0.5000000), wk =   0.0039062
        k(  406) = (  -0.2500000   0.2500000  -0.3750000), wk =   0.0039062
        k(  407) = (  -0.2500000   0.2500000  -0.2500000), wk =   0.0039062
        k(  408) = (  -0.2500000   0.2500000  -0.1250000), wk =   0.0039062
        k(  409) = (  -0.2500000   0.3750000   0.0000000), wk =   0.0039062
        k(  410) = (  -0.2500000   0.3750000   0.1250000), wk =   0.0039062
        k(  411) = (  -0.2500000   0.3750000   0.2500000), wk =   0.0039062
        k(  412) = (  -0.2500000   0.3750000   0.3750000), wk =   0.0039062
        k(  413) = (  -0.2500000   0.3750000  -0.5000000), wk =   0.0039062
        k(  414) = (  -0.2500000   0.3750000  -0.3750000), wk =   0.0039062
        k(  415) = (  -0.2500000   0.3750000  -0.2500000), wk =   0.0039062
        k(  416) = (  -0.2500000   0.3750000  -0.1250000), wk =   0.0039062
        k(  417) = (  -0.2500000  -0.5000000  -0.0000000), wk =   0.0039062
        k(  418) = (  -0.2500000  -0.5000000   0.1250000), wk =   0.0039062
        k(  419) = (  -0.2500000  -0.5000000   0.2500000), wk =   0.0039062
        k(  420) = (  -0.2500000  -0.5000000   0.3750000), wk =   0.0039062
        k(  421) = (  -0.2500000  -0.5000000  -0.5000000), wk =   0.0039062
        k(  422) = (  -0.2500000  -0.5000000  -0.3750000), wk =   0.0039062
        k(  423) = (  -0.2500000  -0.5000000  -0.2500000), wk =   0.0039062
        k(  424) = (  -0.2500000  -0.5000000  -0.1250000), wk =   0.0039062
        k(  425) = (  -0.2500000  -0.3750000  -0.0000000), wk =   0.0039062
        k(  426) = (  -0.2500000  -0.3750000   0.1250000), wk =   0.0039062
        k(  427) = (  -0.2500000  -0.3750000   0.2500000), wk =   0.0039062
        k(  428) = (  -0.2500000  -0.3750000   0.3750000), wk =   0.0039062
        k(  429) = (  -0.2500000  -0.3750000  -0.5000000), wk =   0.0039062
        k(  430) = (  -0.2500000  -0.3750000  -0.3750000), wk =   0.0039062
        k(  431) = (  -0.2500000  -0.3750000  -0.2500000), wk =   0.0039062
        k(  432) = (  -0.2500000  -0.3750000  -0.1250000), wk =   0.0039062
        k(  433) = (  -0.2500000  -0.2500000  -0.0000000), wk =   0.0039062
        k(  434) = (  -0.2500000  -0.2500000   0.1250000), wk =   0.0039062
        k(  435) = (  -0.2500000  -0.2500000   0.2500000), wk =   0.0039062
        k(  436) = (  -0.2500000  -0.2500000   0.3750000), wk =   0.0039062
        k(  437) = (  -0.2500000  -0.2500000  -0.5000000), wk =   0.0039062
        k(  438) = (  -0.2500000  -0.2500000  -0.3750000), wk =   0.0039062
        k(  439) = (  -0.2500000  -0.2500000  -0.2500000), wk =   0.0039062
        k(  440) = (  -0.2500000  -0.2500000  -0.1250000), wk =   0.0039062
        k(  441) = (  -0.2500000  -0.1250000   0.0000000), wk =   0.0039062
        k(  442) = (  -0.2500000  -0.1250000   0.1250000), wk =   0.0039062
        k(  443) = (  -0.2500000  -0.1250000   0.2500000), wk =   0.0039062
        k(  444) = (  -0.2500000  -0.1250000   0.3750000), wk =   0.0039062
        k(  445) = (  -0.2500000  -0.1250000  -0.5000000), wk =   0.0039062
        k(  446) = (  -0.2500000  -0.1250000  -0.3750000), wk =   0.0039062
        k(  447) = (  -0.2500000  -0.1250000  -0.2500000), wk =   0.0039062
        k(  448) = (  -0.2500000  -0.1250000  -0.1250000), wk =   0.0039062
        k(  449) = (  -0.1250000  -0.0000000  -0.0000000), wk =   0.0039062
        k(  450) = (  -0.1250000  -0.0000000   0.1250000), wk =   0.0039062
        k(  451) = (  -0.1250000   0.0000000   0.2500000), wk =   0.0039062
        k(  452) = (  -0.1250000  -0.0000000   0.3750000), wk =   0.0039062
        k(  453) = (  -0.1250000   0.0000000  -0.5000000), wk =   0.0039062
        k(  454) = (  -0.1250000  -0.0000000  -0.3750000), wk =   0.0039062
        k(  455) = (  -0.1250000  -0.0000000  -0.2500000), wk =   0.0039062
        k(  456) = (  -0.1250000  -0.0000000  -0.1250000), wk =   0.0039062
        k(  457) = (  -0.1250000   0.1250000   0.0000000), wk =   0.0039062
        k(  458) = (  -0.1250000   0.1250000   0.1250000), wk =   0.0039062
        k(  459) = (  -0.1250000   0.1250000   0.2500000), wk =   0.0039062
        k(  460) = (  -0.1250000   0.1250000   0.3750000), wk =   0.0039062
        k(  461) = (  -0.1250000   0.1250000  -0.5000000), wk =   0.0039062
        k(  462) = (  -0.1250000   0.1250000  -0.3750000), wk =   0.0039062
        k(  463) = (  -0.1250000   0.1250000  -0.2500000), wk =   0.0039062
        k(  464) = (  -0.1250000   0.1250000  -0.1250000), wk =   0.0039062
        k(  465) = (  -0.1250000   0.2500000   0.0000000), wk =   0.0039062
        k(  466) = (  -0.1250000   0.2500000   0.1250000), wk =   0.0039062
        k(  467) = (  -0.1250000   0.2500000   0.2500000), wk =   0.0039062
        k(  468) = (  -0.1250000   0.2500000   0.3750000), wk =   0.0039062
        k(  469) = (  -0.1250000   0.2500000  -0.5000000), wk =   0.0039062
        k(  470) = (  -0.1250000   0.2500000  -0.3750000), wk =   0.0039062
        k(  471) = (  -0.1250000   0.2500000  -0.2500000), wk =   0.0039062
        k(  472) = (  -0.1250000   0.2500000  -0.1250000), wk =   0.0039062
        k(  473) = (  -0.1250000   0.3750000   0.0000000), wk =   0.0039062
        k(  474) = (  -0.1250000   0.3750000   0.1250000), wk =   0.0039062
        k(  475) = (  -0.1250000   0.3750000   0.2500000), wk =   0.0039062
        k(  476) = (  -0.1250000   0.3750000   0.3750000), wk =   0.0039062
        k(  477) = (  -0.1250000   0.3750000  -0.5000000), wk =   0.0039062
        k(  478) = (  -0.1250000   0.3750000  -0.3750000), wk =   0.0039062
        k(  479) = (  -0.1250000   0.3750000  -0.2500000), wk =   0.0039062
        k(  480) = (  -0.1250000   0.3750000  -0.1250000), wk =   0.0039062
        k(  481) = (  -0.1250000  -0.5000000  -0.0000000), wk =   0.0039062
        k(  482) = (  -0.1250000  -0.5000000   0.1250000), wk =   0.0039062
        k(  483) = (  -0.1250000  -0.5000000   0.2500000), wk =   0.0039062
        k(  484) = (  -0.1250000  -0.5000000   0.3750000), wk =   0.0039062
        k(  485) = (  -0.1250000  -0.5000000  -0.5000000), wk =   0.0039062
[...]
     1.0000   1.0000   0.0000   0.0000

          k =-0.2491-0.3308 0.2450 (   453 PWs)   bands (ev):

     1.0250   3.4150  12.5305  16.3607

     occupation numbers 
     1.0000   1.0000   0.0000   0.0000

          k =-0.2171-0.3363-0.3188 (   455 PWs)   bands (ev):

     1.2912   2.9635  13.3490  15.5186

     occupation numbers 
     1.0000   1.0000   0.0000   0.0000

          k =-0.2216-0.3355-0.2383 (   449 PWs)   bands (ev):

     0.8314   3.7463  13.3086  15.4775

     occupation numbers 
     1.0000   1.0000   0.0000   0.0000

          k =-0.2262-0.3347-0.1578 (   445 PWs)   bands (ev):

     0.3266   5.0661  12.0031  14.9003

     occupation numbers 
     1.0000   1.0000   0.0000   0.0000

          k =-0.2308-0.3340-0.0772 (   448 PWs)   bands (ev):

     0.0164   6.6327  10.1233  14.3793

     occupation numbers 
     1.0000   1.0000   0.0000   0.0000

          k =-0.1213-0.0871-0.0003 (   445 PWs)   bands (ev):

    -2.9295   4.1538   8.8109  20.9387

     occupation numbers 
     1.0000   1.0000   0.0000   0.0000

          k =-0.1259-0.0863 0.0802 (   445 PWs)   bands (ev):

    -2.7915   3.2946   9.9949  21.0234

     occupation numbers 
     1.0000   1.0000   0.0000   0.0000

          k =-0.1304-0.0855 0.1607 (   446 PWs)   bands (ev):

    -2.4191   1.8955  12.3262  21.3262

     occupation numbers 
     1.0000   1.0000   0.0000   0.0000

          k =-0.1350-0.0847 0.2413 (   452 PWs)   bands (ev):

    -1.8696   0.6534  15.0525  21.6546

     occupation numbers 
     1.0000   1.0000   0.0000   0.0000

          k =-0.1029-0.0902-0.3225 (   456 PWs)   bands (ev):

    -1.5179   0.0844  17.0611  19.3806

     occupation numbers 
     1.0000   1.0000   0.0000   0.0000

          k =-0.1075-0.0894-0.2420 (   451 PWs)   bands (ev):

    -1.9495   0.7934  14.7882  21.0750

     occupation numbers 
     1.0000   1.0000   0.0000   0.0000

          k =-0.1121-0.0886-0.1614 (   445 PWs)   bands (ev):

    -2.4842   2.0732  12.0522  21.3637

     occupation numbers 
     1.0000   1.0000   0.0000   0.0000

          k =-0.1167-0.0879-0.0809 (   442 PWs)   bands (ev):

    -2.8255   3.4557   9.7840  21.0865

     occupation numbers 
     1.0000   1.0000   0.0000   0.0000

          k =-0.1284 0.0720-0.0044 (   442 PWs)   bands (ev):

    -2.9421   4.1406   8.7915  20.3279

     occupation numbers 
     1.0000   1.0000   0.0000   0.0000

          k =-0.1330 0.0728 0.0762 (   448 PWs)   bands (ev):

    -2.8097   3.3098   9.9453  20.3285

     occupation numbers 
     1.0000   1.0000   0.0000   0.0000

          k =-0.1376 0.0735 0.1567 (   454 PWs)   bands (ev):

    -2.4433   1.9141  12.2773  20.4773

     occupation numbers 
     1.0000   1.0000   0.0000   0.0000

          k =-0.1422 0.0743 0.2373 (   456 PWs)   bands (ev):

    -1.8953   0.6642  15.0456  20.2965

     occupation numbers 
     1.0000   1.0000   0.0000   0.0000

          k =-0.1101 0.0688-0.3265 (   451 PWs)   bands (ev):

    -1.5274   0.0706  17.0717  19.2208

     occupation numbers 
     1.0000   1.0000   0.0000   0.0000

          k =-0.1147 0.0696-0.2460 (   440 PWs)   bands (ev):

    -1.9474   0.7529  14.7691  21.4536

     occupation numbers 
     1.0000   1.0000   0.0000   0.0000

          k =-0.1193 0.0704-0.1654 (   437 PWs)   bands (ev):

    -2.4843   2.0260  12.0598  20.9775

     occupation numbers 
     1.0000   1.0000   0.0000   0.0000

          k =-0.1238 0.0712-0.0849 (   441 PWs)   bands (ev):

    -2.8305   3.4117   9.7979  20.5369

     occupation numbers 
     1.0000   1.0000   0.0000   0.0000

          k =-0.1356 0.2310-0.0084 (   446 PWs)   bands (ev):

    -1.9416   5.4609   9.1112  17.3537

     occupation numbers 
     1.0000   1.0000   0.0000   0.0000

          k =-0.1402 0.2318 0.0722 (   449 PWs)   bands (ev):

    -1.8134   4.5308  10.3162  17.3593

     occupation numbers 
     1.0000   1.0000   0.0000   0.0000

          k =-0.1447 0.2326 0.1527 (   451 PWs)   bands (ev):

    -1.4492   3.0419  12.6305  17.5574

     occupation numbers 
     1.0000   1.0000   0.0000   0.0000

          k =-0.1493 0.2334 0.2333 (   452 PWs)   bands (ev):

    -0.9038   1.7459  15.2727  17.7951

     occupation numbers 
     1.0000   1.0000   0.0000   0.0000

          k =-0.1173 0.2278-0.3305 (   452 PWs)   bands (ev):

    -0.5185   1.1099  17.2654  17.9515

     occupation numbers 
     1.0000   1.0000   0.0000   0.0000

          k =-0.1218 0.2286-0.2500 (   449 PWs)   bands (ev):

    -0.9288   1.7804  15.1798  18.7199

     occupation numbers 
     1.0000   1.0000   0.0000   0.0000

          k =-0.1264 0.2294-0.1695 (   444 PWs)   bands (ev):

    -1.4703   3.0814  12.6002  18.0481

     occupation numbers 
     1.0000   1.0000   0.0000   0.0000

          k =-0.1310 0.2302-0.0889 (   445 PWs)   bands (ev):

    -1.8237   4.5643  10.3022  17.5790

     occupation numbers 
     1.0000   1.0000   0.0000   0.0000

          k =-0.1427 0.3900-0.0124 (   455 PWs)   bands (ev):

     0.0616   8.0583   9.6859  14.1934

     occupation numbers 
     1.0000   0.9989   0.0000   0.0000

          k =-0.1473 0.3908 0.0682 (   455 PWs)   bands (ev):

     0.1819   6.8304  10.9592  14.2668

     occupation numbers 
     1.0000   1.0000   0.0000   0.0000

          k =-0.1519 0.3916 0.1487 (   456 PWs)   bands (ev):

     0.5496   5.1954  12.8775  14.5394

     occupation numbers 
     1.0000   1.0000   0.0000   0.0000

          k =-0.1565 0.3924 0.2292 (   453 PWs)   bands (ev):

     1.1004   3.8487  14.2527  15.2132

     occupation numbers 
     1.0000   1.0000   0.0000   0.0000

          k =-0.1244 0.3869-0.3346 (   451 PWs)   bands (ev):

     1.4908   3.1704  14.7247  15.9008

     occupation numbers 
     1.0000   1.0000   0.0000   0.0000

          k =-0.1290 0.3877-0.2540 (   453 PWs)   bands (ev):

     1.0962   3.8118  14.7315  15.7478

     occupation numbers 
     1.0000   1.0000   0.0000   0.0000

          k =-0.1336 0.3885-0.1735 (   452 PWs)   bands (ev):

     0.5447   5.1235  13.5866  14.5077

     occupation numbers 
     1.0000   1.0000   0.0000   0.0000

          k =-0.1382 0.3892-0.0929 (   452 PWs)   bands (ev):

     0.1835   6.7166  11.3542  14.2904

     occupation numbers 
     1.0000   1.0000   0.0000   0.0000

          k =-0.0926-0.7232 0.0157 (   458 PWs)   bands (ev):

     2.8254   8.1632  11.6799  12.2218

     occupation numbers 
     1.0000   0.9384   0.0000   0.0000

          k =-0.0972-0.7224 0.0963 (   452 PWs)   bands (ev):

     2.9543   8.0512  10.8029  12.9588

     occupation numbers 
     1.0000   0.9992   0.0000   0.0000

          k =-0.1018-0.7216 0.1768 (   453 PWs)   bands (ev):

     3.3277   7.3822  10.3098  12.7582

     occupation numbers 
     1.0000   1.0000   0.0000   0.0000

          k =-0.1064-0.7208 0.2574 (   454 PWs)   bands (ev):

     3.8808   6.4121  10.3586  12.0569

     occupation numbers 
     1.0000   1.0000   0.0000   0.0000

          k =-0.0743-0.7264-0.3065 (   448 PWs)   bands (ev):

     4.2822   5.8053  10.5135  11.7564

     occupation numbers 
     1.0000   1.0000   0.0000   0.0000

          k =-0.0789-0.7256-0.2259 (   455 PWs)   bands (ev):

     3.8960   6.2891  10.4763  12.1601

     occupation numbers 
     1.0000   1.0000   0.0000   0.0000

          k =-0.0835-0.7248-0.1454 (   457 PWs)   bands (ev):

     3.3336   7.1636  10.5543  12.9155

     occupation numbers 
     1.0000   1.0000   0.0000   0.0000

          k =-0.0881-0.7240-0.0648 (   453 PWs)   bands (ev):

     2.9553   7.8544  11.0223  13.1933

     occupation numbers 
     1.0000   1.0000   0.0000   0.0000

          k =-0.0998-0.5642 0.0117 (   455 PWs)   bands (ev):

     2.8812   8.0863  11.7317  12.2810

     occupation numbers 
     1.0000   0.9967   0.0000   0.0000

          k =-0.1044-0.5634 0.0923 (   455 PWs)   bands (ev):

     3.0418   7.7743  11.0996  12.9556

     occupation numbers 
     1.0000   1.0000   0.0000   0.0000

          k =-0.1090-0.5626 0.1728 (   455 PWs)   bands (ev):

     3.4459   7.0854  10.5788  12.8615

     occupation numbers 
     1.0000   1.0000   0.0000   0.0000

          k =-0.1135-0.5618 0.2533 (   450 PWs)   bands (ev):

     4.0158   6.2348  10.5036  12.0429

     occupation numbers 
     1.0000   1.0000   0.0000   0.0000

          k =-0.0815-0.5673-0.3105 (   451 PWs)   bands (ev):

     4.3194   5.8692  10.5079  11.6802

     occupation numbers 
     1.0000   1.0000   0.0000   0.0000

          k =-0.0861-0.5665-0.2299 (   453 PWs)   bands (ev):

     3.8615   6.5453  10.2989  12.0459

     occupation numbers 
     1.0000   1.0000   0.0000   0.0000

          k =-0.0906-0.5657-0.1494 (   456 PWs)   bands (ev):

     3.3245   7.4634  10.2739  12.8442

     occupation numbers 
     1.0000   1.0000   0.0000   0.0000

          k =-0.0952-0.5650-0.0688 (   449 PWs)   bands (ev):

     2.9795   8.0260  10.8153  13.4719

     occupation numbers 
     1.0000   0.9997   0.0000   0.0000

          k =-0.1070-0.4051 0.0077 (   457 PWs)   bands (ev):

     0.1106   8.0905   9.7312  14.2982

     occupation numbers 
     1.0000   0.9962   0.0000   0.0000

          k =-0.1115-0.4043 0.0882 (   454 PWs)   bands (ev):

     0.2659   6.6193  11.4732  14.3142

     occupation numbers 
     1.0000   1.0000   0.0000   0.0000

          k =-0.1161-0.4036 0.1688 (   452 PWs)   bands (ev):

     0.6548   5.0325  13.5825  14.4978

     occupation numbers 
     1.0000   1.0000   0.0000   0.0000

          k =-0.1207-0.4028 0.2493 (   452 PWs)   bands (ev):

     1.2155   3.7557  14.7233  15.4298

     occupation numbers 
     1.0000   1.0000   0.0000   0.0000

          k =-0.0886-0.4083-0.3145 (   448 PWs)   bands (ev):

     1.5319   3.2418  14.6976  15.8909

     occupation numbers 
     1.0000   1.0000   0.0000   0.0000

          k =-0.0932-0.4075-0.2339 (   447 PWs)   bands (ev):

     1.0764   4.0246  14.0494  15.9033

     occupation numbers 
     1.0000   1.0000   0.0000   0.0000

          k =-0.0978-0.4067-0.1534 (   450 PWs)   bands (ev):

     0.5459   5.4047  12.7256  15.0732

     occupation numbers 
     1.0000   1.0000   0.0000   0.0000

          k =-0.1024-0.4059-0.0729 (   447 PWs)   bands (ev):

     0.2057   7.0421  10.8493  14.5129

     occupation numbers 
     1.0000   1.0000   0.0000   0.0000

          k =-0.1141-0.2461 0.0037 (   447 PWs)   bands (ev):

    -1.9073   5.4978   9.1625  17.7463

     occupation numbers 
     1.0000   1.0000   0.0000   0.0000

          k =-0.1187-0.2453 0.0842 (   453 PWs)   bands (ev):

    -1.7603   4.4648  10.5008  17.8689

     occupation numbers 
     1.0000   1.0000   0.0000   0.0000

          k =-0.1233-0.2445 0.1648 (   451 PWs)   bands (ev):

    -1.3795   2.9744  12.8152  18.2617

     occupation numbers 
     1.0000   1.0000   0.0000   0.0000

          k =-0.1279-0.2437 0.2453 (   452 PWs)   bands (ev):

    -0.8285   1.7055  15.3549  18.9203

     occupation numbers 
     1.0000   1.0000   0.0000   0.0000

          k =-0.0958-0.2493-0.3185 (   451 PWs)   bands (ev):

    -0.4932   1.1564  17.2034  18.2624

     occupation numbers 
     1.0000   1.0000   0.0000   0.0000

          k =-0.1004-0.2485-0.2380 (   449 PWs)   bands (ev):

    -0.9386   1.9045  15.1242  18.4066

     occupation numbers 
     1.0000   1.0000   0.0000   0.0000

          k =-0.1050-0.2477-0.1574 (   447 PWs)   bands (ev):

    -1.4704   3.2318  12.4826  18.1733

     occupation numbers 
     1.0000   1.0000   0.0000   0.0000

          k =-0.1095-0.2469-0.0769 (   447 PWs)   bands (ev):

    -1.8068   4.7136  10.2025  17.8746

     occupation numbers 
     1.0000   1.0000   0.0000   0.0000

     the Fermi energy is     8.2332 ev

!    total energy              =      -5.34505626 Ry
     estimated scf accuracy    <       0.01749561 Ry
     smearing contrib. (-TS)   =      -0.00004908 Ry
     internal energy E=F+TS    =      -5.34500718 Ry

     The total energy is F=E-TS. E is the sum of the following terms:
     one-electron contribution =       4.03800817 Ry
     hartree contribution      =       0.05947444 Ry
     xc contribution           =      -3.32001198 Ry
     ewald contribution        =      -6.12247782 Ry

     convergence has been achieved in   1 iterations

     Forces acting on atoms (cartesian axes, Ry/au):

     atom    1 type  1   force =    -0.00425675    0.01811328    0.01886533
     atom    2 type  1   force =     0.00425675   -0.01811328   -0.01886533
     The non-local contrib.  to forces
     atom    1 type  1   force =    -0.00811307    0.01329590    0.11310785
     atom    2 type  1   force =     0.00808225   -0.01330992   -0.11302942
     The ionic contribution  to forces
     atom    1 type  1   force =    -0.01661976    0.00208844    0.28624676
     atom    2 type  1   force =     0.01661976   -0.00208844   -0.28624676
     The local contribution  to forces
     atom    1 type  1   force =     0.02374374    0.00239119   -0.43858301
     atom    2 type  1   force =    -0.02372075   -0.00238941    0.43856153
     The core correction contribution to forces
     atom    1 type  1   force =     0.00048834   -0.00024808   -0.00814544
     atom    2 type  1   force =    -0.00044023    0.00021757    0.00814005
     The Hubbard contrib.    to forces
     atom    1 type  1   force =     0.00000000    0.00000000    0.00000000
     atom    2 type  1   force =     0.00000000    0.00000000    0.00000000
     The SCF correction term to forces
     atom    1 type  1   force =    -0.00373802    0.00056490    0.06628121
     atom    2 type  1   force =     0.00373368   -0.00056402   -0.06624867

     Total force =     0.037473     Total SCF correction =     0.093865
     SCF correction compared to forces is large: reduce conv_thr to get better values


     Computing stress (Cartesian axis) and pressure

          total   stress  (Ry/bohr**3)                   (kbar)     P=       68.53
   0.00002406   0.00013830  -0.00046733            3.54       20.34      -68.75
   0.00013830   0.00115061   0.00016409           20.34      169.26       24.14
  -0.00046733   0.00016409   0.00022299          -68.75       24.14       32.80

     kinetic stress (kbar)   2861.66     13.41    -39.45
                               13.41   3015.22     21.01
                              -39.45     21.01   2854.94

     local   stress (kbar)     63.03    -10.09     -6.86
                              -10.09     93.05     10.02
                               -6.86     10.02    440.95

     nonloc. stress (kbar)    932.41      1.61     -2.57
                                1.61    906.41     -1.34
                               -2.57     -1.34    940.84

     hartree stress (kbar)     78.79     -0.01      9.14
                               -0.01     79.60     -1.53
                                9.14     -1.53    -75.02

     exc-cor stress (kbar)    113.43      0.20     -0.38
                                0.20    113.36      0.04
                               -0.38      0.04    112.84

     corecor stress (kbar)  -1247.91     -0.64      1.27
                               -0.64  -1248.03     -0.18
                                1.27     -0.18  -1247.51

     ewald   stress (kbar)  -2797.87     15.87    -29.91
                               15.87  -2790.34     -3.88
                              -29.91     -3.88  -2994.25

     hubbard stress (kbar)      0.00      0.00      0.00
                                0.00      0.00      0.00
                                0.00      0.00      0.00

     DFT-D   stress (kbar)      0.00      0.00      0.00
                                0.00      0.00      0.00
                                0.00      0.00      0.00

     XDM     stress (kbar)      0.00      0.00      0.00
                                0.00      0.00      0.00
                                0.00      0.00      0.00

     dft-nl  stress (kbar)      0.00      0.00      0.00
                                0.00      0.00      0.00
                                0.00      0.00      0.00

     TS-vdW  stress (kbar)      0.00      0.00      0.00
                                0.00      0.00      0.00
                                0.00      0.00      0.00

     MDB     stress (kbar)      0.00      0.00      0.00
                                0.00      0.00      0.00
                                0.00      0.00      0.00

     3D-RISM stress (kbar)      0.00      0.00      0.00
                                0.00      0.00      0.00
                                0.00      0.00      0.00


     Writing all to output data dir ../tmp/Be/Be.save/ :
     XML data file, charge density, pseudopotentials, collected wavefunctions

     init_run     :      1.40s CPU      1.45s WALL (       1 calls)
     electrons    :      3.65s CPU      3.78s WALL (       1 calls)
     forces       :      0.11s CPU      0.11s WALL (       1 calls)
     stress       :      1.24s CPU      1.26s WALL (       1 calls)

     Called by init_run:
     wfcinit      :      1.08s CPU      1.12s WALL (       1 calls)
     wfcinit:atom :      0.03s CPU      0.03s WALL (     512 calls)
     wfcinit:wfcr :      0.89s CPU      0.93s WALL (     512 calls)
     potinit      :      0.02s CPU      0.02s WALL (       1 calls)
     hinit0       :      0.27s CPU      0.27s WALL (       1 calls)

     Called by electrons:
     c_bands      :      3.18s CPU      3.30s WALL (       2 calls)
     sum_band     :      0.46s CPU      0.47s WALL (       2 calls)
     v_of_rho     :      0.01s CPU      0.01s WALL (       2 calls)
     v_h          :      0.00s CPU      0.00s WALL (       2 calls)
     v_xc         :      0.01s CPU      0.01s WALL (       4 calls)
     newd         :      0.01s CPU      0.01s WALL (       2 calls)
     mix_rho      :      0.00s CPU      0.00s WALL (       2 calls)

     Called by c_bands:
     init_us_2    :      0.30s CPU      0.31s WALL (    3584 calls)
     cegterg      :      2.97s CPU      3.08s WALL (    1024 calls)

     Called by sum_band:
     sum_band:wei :      0.00s CPU      0.00s WALL (       2 calls)
     sum_band:loo :      0.45s CPU      0.46s WALL (       2 calls)
     sum_band:buf :      0.00s CPU      0.00s WALL (    1024 calls)
     sum_band:ini :      0.08s CPU      0.09s WALL (    1024 calls)
     sum_band:cal :      0.02s CPU      0.02s WALL (    1024 calls)
     sum_band:bec :      0.00s CPU      0.00s WALL (    1024 calls)
     addusdens    :      0.01s CPU      0.01s WALL (       2 calls)
                                        0.00s GPU  (       2 calls)
     addusd:skk   :      0.00s CPU      0.00s WALL (       2 calls)
                                        0.00s GPU  (       2 calls)

     Called by *egterg:
     cdiaghg      :      0.14s CPU      0.15s WALL (    4459 calls)
     cegterg:over :      0.04s CPU      0.04s WALL (    3947 calls)
     cegterg:upda :      0.05s CPU      0.06s WALL (    3947 calls)
     cegterg:last :      0.07s CPU      0.07s WALL (    2851 calls)
     h_psi        :      3.37s CPU      3.50s WALL (    5483 calls)
     s_psi        :      0.07s CPU      0.07s WALL (    5483 calls)
     g_psi        :      0.02s CPU      0.02s WALL (    3947 calls)

     Called by h_psi:
     h_psi:calbec :      0.08s CPU      0.08s WALL (    5483 calls)
     vloc_psi     :      3.18s CPU      3.30s WALL (    5483 calls)
     add_vuspsi   :      0.07s CPU      0.08s WALL (    5483 calls)

     General routines
     calbec       :      0.12s CPU      0.13s WALL (    9067 calls)
     fft          :      0.13s CPU      0.13s WALL (      48 calls)
     ffts         :      0.00s CPU      0.00s WALL (       2 calls)
     fftw         :      3.15s CPU      3.26s WALL (   39792 calls)


     PWSCF        :      6.52s CPU      6.80s WALL


   This run was terminated on:  18:50:47   6May2024            

=------------------------------------------------------------------------------=
   JOB DONE.
=------------------------------------------------------------------------------=
