
     Program PWSCF v.7.3.1 starts on  6May2024 at 18:50:52 

     This program is part of the open-source Quantum ESPRESSO suite
     for quantum simulation of materials; please cite
         "P. Giannozzi et al., J. Phys.:Condens. Matter 21 395502 (2009);
         "P. Giannozzi et al., J. Phys.:Condens. Matter 29 465901 (2017);
         "P. Giannozzi et al., J. Chem. Phys. 152 154105 (2020);
          URL http://www.quantum-espresso.org", 
     in publications or presentations arising from this work. More details at
     http://www.quantum-espresso.org/quote

     Serial version
     2186 MiB available memory on the printing compute node when the environment starts

     Reading input from Be7.pw.in

     Current dimensions of program PWSCF are:
     Max number of different atomic species (ntypx) = 10
     Max number of k-points (npk) =  40000
     Max angular momentum in pseudopotentials (lmaxx) =  4


     G-vector sticks info
     --------------------
     sticks:   dense  smooth     PW     G-vecs:    dense   smooth      PW
     Sum         199     199     79                 3683     3683     871

     Using Slab Decomposition



     bravais-lattice index     =            0
     lattice parameter (alat)  =       4.2087  a.u.
     unit-cell volume          =     107.1399 (a.u.)^3
     number of atoms/cell      =            2
     number of atomic types    =            1
     number of electrons       =         4.00
     number of Kohn-Sham states=            4
     kinetic-energy cutoff     =      40.0000  Ry
     charge density cutoff     =     160.0000  Ry
     scf convergence threshold =      2.0E-02
     mixing beta               =       0.1000
     number of iterations used =            8  plain     mixing
     Exchange-correlation= PBE
                           (   1   4   3   4   0   0   0)

     celldm(1)=   4.208697  celldm(2)=   0.000000  celldm(3)=   0.000000
     celldm(4)=   0.000000  celldm(5)=   0.000000  celldm(6)=   0.000000

     crystal axes: (cart. coord. in units of alat)
               a(1) = (   0.999041   0.039156   0.019587 )  
               a(2) = (  -0.502953   0.846446   0.061740 )  
               a(3) = (  -0.076538  -0.075851   1.653318 )  

     reciprocal axes: (cart. coord. in units 2 pi/alat)
               b(1) = (  0.977007  0.575308  0.071623 )  
               b(2) = ( -0.046078  1.150338  0.050642 )  
               b(3) = ( -0.009854 -0.049773  0.602105 )  


     PseudoPot. # 1 for Be read from file:
     ../pseudo/Be.pbe-n-rrkjus_psl.1.0.0.UPF
     MD5 check sum: 734a25375992c446e1da9bf329ae4716
     Pseudo is Ultrasoft + core correction, Zval =  2.0
     Generated using &quot;atomic&quot; code by A. Dal Corso  v.6.6
     Using radial grid of 1041 points,  4 beta functions with: 
                l(1) =   0
                l(2) =   0
                l(3) =   1
                l(4) =   1
     Q(r) pseudized with 0 coefficients 


     atomic species   valence    mass     pseudopotential
     Be                2.00     9.01218     Be( 1.00)

     No symmetry found


                                    s                        frac. trans.

      isym =  1     identity                                     

 cryst.   s( 1) = (     1          0          0      )
                  (     0          1          0      )
                  (     0          0          1      )

 cart.    s( 1) = (  1.0000000  0.0000000  0.0000000 )
                  (  0.0000000  1.0000000  0.0000000 )
                  (  0.0000000  0.0000000  1.0000000 )


   Cartesian axes

     site n.     atom                  positions (alat units)
         1        Be     tau(   1) = (   0.7870532   0.1441323   1.2022885  )
         2        Be     tau(   2) = (  -0.2797167   0.7346004   0.4006047  )

   Crystallographic axes

     site n.     atom                  positions (cryst. coord.)
         1        Be     tau(   1) = (  0.9379890  0.1904214  0.7089741  )
         2        Be     tau(   2) = (  0.1780289  0.8782149  0.2073991  )

     number of k points=   512  Fermi-Dirac smearing, width (Ry)=  0.0019
                       cart. coord. in units 2pi/alat
        k(    1) = (   0.0000000   0.0000000   0.0000000), wk =   0.0039062
        k(    2) = (  -0.0012317  -0.0062216   0.0752631), wk =   0.0039062
        k(    3) = (  -0.0024635  -0.0124432   0.1505262), wk =   0.0039062
        k(    4) = (  -0.0036952  -0.0186649   0.2257893), wk =   0.0039062
        k(    5) = (   0.0049270   0.0248865  -0.3010523), wk =   0.0039062
        k(    6) = (   0.0036952   0.0186649  -0.2257893), wk =   0.0039062
        k(    7) = (   0.0024635   0.0124432  -0.1505262), wk =   0.0039062
        k(    8) = (   0.0012317   0.0062216  -0.0752631), wk =   0.0039062
        k(    9) = (  -0.0057598   0.1437922   0.0063303), wk =   0.0039062
        k(   10) = (  -0.0069915   0.1375706   0.0815934), wk =   0.0039062
        k(   11) = (  -0.0082233   0.1313490   0.1568565), wk =   0.0039062
        k(   12) = (  -0.0094550   0.1251273   0.2321195), wk =   0.0039062
        k(   13) = (  -0.0008328   0.1686787  -0.2947221), wk =   0.0039062
        k(   14) = (  -0.0020646   0.1624571  -0.2194590), wk =   0.0039062
        k(   15) = (  -0.0032963   0.1562354  -0.1441959), wk =   0.0039062
        k(   16) = (  -0.0045280   0.1500138  -0.0689328), wk =   0.0039062
        k(   17) = (  -0.0115196   0.2875844   0.0126606), wk =   0.0039062
        k(   18) = (  -0.0127513   0.2813628   0.0879236), wk =   0.0039062
        k(   19) = (  -0.0139830   0.2751412   0.1631867), wk =   0.0039062
        k(   20) = (  -0.0152148   0.2689195   0.2384498), wk =   0.0039062
        k(   21) = (  -0.0065926   0.3124709  -0.2883918), wk =   0.0039062
        k(   22) = (  -0.0078243   0.3062493  -0.2131287), wk =   0.0039062
        k(   23) = (  -0.0090561   0.3000276  -0.1378656), wk =   0.0039062
        k(   24) = (  -0.0102878   0.2938060  -0.0626025), wk =   0.0039062
        k(   25) = (  -0.0172793   0.4313766   0.0189908), wk =   0.0039062
        k(   26) = (  -0.0185111   0.4251550   0.0942539), wk =   0.0039062
        k(   27) = (  -0.0197428   0.4189334   0.1695170), wk =   0.0039062
        k(   28) = (  -0.0209746   0.4127117   0.2447801), wk =   0.0039062
        k(   29) = (  -0.0123524   0.4562631  -0.2820615), wk =   0.0039062
        k(   30) = (  -0.0135841   0.4500415  -0.2067984), wk =   0.0039062
        k(   31) = (  -0.0148159   0.4438198  -0.1315353), wk =   0.0039062
        k(   32) = (  -0.0160476   0.4375982  -0.0562722), wk =   0.0039062
        k(   33) = (   0.0230391  -0.5751688  -0.0253211), wk =   0.0039062
        k(   34) = (   0.0218074  -0.5813904   0.0499420), wk =   0.0039062
        k(   35) = (   0.0205756  -0.5876120   0.1252051), wk =   0.0039062
        k(   36) = (   0.0193439  -0.5938337   0.2004681), wk =   0.0039062
        k(   37) = (   0.0279661  -0.5502823  -0.3263735), wk =   0.0039062
        k(   38) = (   0.0267343  -0.5565039  -0.2511104), wk =   0.0039062
        k(   39) = (   0.0255026  -0.5627256  -0.1758473), wk =   0.0039062
        k(   40) = (   0.0242709  -0.5689472  -0.1005842), wk =   0.0039062
        k(   41) = (   0.0172793  -0.4313766  -0.0189908), wk =   0.0039062
        k(   42) = (   0.0160476  -0.4375982   0.0562722), wk =   0.0039062
        k(   43) = (   0.0148159  -0.4438198   0.1315353), wk =   0.0039062
        k(   44) = (   0.0135841  -0.4500415   0.2067984), wk =   0.0039062
        k(   45) = (   0.0222063  -0.4064901  -0.3200432), wk =   0.0039062
        k(   46) = (   0.0209746  -0.4127117  -0.2447801), wk =   0.0039062
        k(   47) = (   0.0197428  -0.4189334  -0.1695170), wk =   0.0039062
        k(   48) = (   0.0185111  -0.4251550  -0.0942539), wk =   0.0039062
        k(   49) = (   0.0115196  -0.2875844  -0.0126606), wk =   0.0039062
        k(   50) = (   0.0102878  -0.2938060   0.0626025), wk =   0.0039062
        k(   51) = (   0.0090561  -0.3000276   0.1378656), wk =   0.0039062
        k(   52) = (   0.0078243  -0.3062493   0.2131287), wk =   0.0039062
        k(   53) = (   0.0164465  -0.2626979  -0.3137129), wk =   0.0039062
        k(   54) = (   0.0152148  -0.2689195  -0.2384498), wk =   0.0039062
        k(   55) = (   0.0139830  -0.2751412  -0.1631867), wk =   0.0039062
        k(   56) = (   0.0127513  -0.2813628  -0.0879236), wk =   0.0039062
        k(   57) = (   0.0057598  -0.1437922  -0.0063303), wk =   0.0039062
        k(   58) = (   0.0045280  -0.1500138   0.0689328), wk =   0.0039062
        k(   59) = (   0.0032963  -0.1562354   0.1441959), wk =   0.0039062
        k(   60) = (   0.0020646  -0.1624571   0.2194590), wk =   0.0039062
        k(   61) = (   0.0106868  -0.1189057  -0.3073826), wk =   0.0039062
        k(   62) = (   0.0094550  -0.1251273  -0.2321195), wk =   0.0039062
        k(   63) = (   0.0082233  -0.1313490  -0.1568565), wk =   0.0039062
        k(   64) = (   0.0069915  -0.1375706  -0.0815934), wk =   0.0039062
        k(   65) = (   0.1221259   0.0719135   0.0089529), wk =   0.0039062
        k(   66) = (   0.1208942   0.0656919   0.0842160), wk =   0.0039062
        k(   67) = (   0.1196624   0.0594703   0.1594791), wk =   0.0039062
        k(   68) = (   0.1184307   0.0532487   0.2347422), wk =   0.0039062
        k(   69) = (   0.1270529   0.0968000  -0.2920995), wk =   0.0039062
        k(   70) = (   0.1258212   0.0905784  -0.2168364), wk =   0.0039062
        k(   71) = (   0.1245894   0.0843568  -0.1415733), wk =   0.0039062
        k(   72) = (   0.1233577   0.0781351  -0.0663102), wk =   0.0039062
        k(   73) = (   0.1163661   0.2157057   0.0152832), wk =   0.0039062
        k(   74) = (   0.1151344   0.2094841   0.0905463), wk =   0.0039062
        k(   75) = (   0.1139027   0.2032625   0.1658093), wk =   0.0039062
        k(   76) = (   0.1126709   0.1970409   0.2410724), wk =   0.0039062
        k(   77) = (   0.1212931   0.2405922  -0.2857692), wk =   0.0039062
        k(   78) = (   0.1200614   0.2343706  -0.2105061), wk =   0.0039062
        k(   79) = (   0.1188296   0.2281490  -0.1352430), wk =   0.0039062
        k(   80) = (   0.1175979   0.2219273  -0.0599799), wk =   0.0039062
        k(   81) = (   0.1106064   0.3594979   0.0216134), wk =   0.0039062
        k(   82) = (   0.1093746   0.3532763   0.0968765), wk =   0.0039062
        k(   83) = (   0.1081429   0.3470547   0.1721396), wk =   0.0039062
        k(   84) = (   0.1069111   0.3408331   0.2474027), wk =   0.0039062
        k(   85) = (   0.1155333   0.3843844  -0.2794389), wk =   0.0039062
        k(   86) = (   0.1143016   0.3781628  -0.2041758), wk =   0.0039062
        k(   87) = (   0.1130699   0.3719412  -0.1289127), wk =   0.0039062
        k(   88) = (   0.1118381   0.3657195  -0.0536496), wk =   0.0039062
        k(   89) = (   0.1048466   0.5032901   0.0279437), wk =   0.0039062
        k(   90) = (   0.1036148   0.4970685   0.1032068), wk =   0.0039062
        k(   91) = (   0.1023831   0.4908469   0.1784699), wk =   0.0039062
        k(   92) = (   0.1011514   0.4846253   0.2537330), wk =   0.0039062
        k(   93) = (   0.1097736   0.5281766  -0.2731086), wk =   0.0039062
        k(   94) = (   0.1085418   0.5219550  -0.1978455), wk =   0.0039062
        k(   95) = (   0.1073101   0.5157334  -0.1225824), wk =   0.0039062
        k(   96) = (   0.1060783   0.5095117  -0.0473194), wk =   0.0039062
        k(   97) = (   0.1451650  -0.5032553  -0.0163682), wk =   0.0039062
        k(   98) = (   0.1439333  -0.5094769   0.0588949), wk =   0.0039062
        k(   99) = (   0.1427016  -0.5156985   0.1341579), wk =   0.0039062
        k(  100) = (   0.1414698  -0.5219201   0.2094210), wk =   0.0039062
        k(  101) = (   0.1500920  -0.4783688  -0.3174206), wk =   0.0039062
        k(  102) = (   0.1488603  -0.4845904  -0.2421575), wk =   0.0039062
        k(  103) = (   0.1476285  -0.4908120  -0.1668944), wk =   0.0039062
        k(  104) = (   0.1463968  -0.4970337  -0.0916313), wk =   0.0039062
        k(  105) = (   0.1394053  -0.3594631  -0.0100380), wk =   0.0039062
        k(  106) = (   0.1381735  -0.3656847   0.0652251), wk =   0.0039062
        k(  107) = (   0.1369418  -0.3719063   0.1404882), wk =   0.0039062
        k(  108) = (   0.1357100  -0.3781279   0.2157513), wk =   0.0039062
        k(  109) = (   0.1443322  -0.3345766  -0.3110903), wk =   0.0039062
        k(  110) = (   0.1431005  -0.3407982  -0.2358272), wk =   0.0039062
        k(  111) = (   0.1418688  -0.3470198  -0.1605641), wk =   0.0039062
        k(  112) = (   0.1406370  -0.3532415  -0.0853010), wk =   0.0039062
        k(  113) = (   0.1336455  -0.2156709  -0.0037077), wk =   0.0039062
        k(  114) = (   0.1324137  -0.2218925   0.0715554), wk =   0.0039062
        k(  115) = (   0.1311820  -0.2281141   0.1468185), wk =   0.0039062
        k(  116) = (   0.1299503  -0.2343357   0.2220816), wk =   0.0039062
        k(  117) = (   0.1385725  -0.1907844  -0.3047600), wk =   0.0039062
        k(  118) = (   0.1373407  -0.1970060  -0.2294969), wk =   0.0039062
        k(  119) = (   0.1361090  -0.2032276  -0.1542338), wk =   0.0039062
        k(  120) = (   0.1348772  -0.2094493  -0.0789708), wk =   0.0039062
        k(  121) = (   0.1278857  -0.0718787   0.0026226), wk =   0.0039062
        k(  122) = (   0.1266540  -0.0781003   0.0778857), wk =   0.0039062
        k(  123) = (   0.1254222  -0.0843219   0.1531488), wk =   0.0039062
        k(  124) = (   0.1241905  -0.0905435   0.2284119), wk =   0.0039062
        k(  125) = (   0.1328127  -0.0469922  -0.2984297), wk =   0.0039062
        k(  126) = (   0.1315809  -0.0532138  -0.2231667), wk =   0.0039062
        k(  127) = (   0.1303492  -0.0594354  -0.1479036), wk =   0.0039062
        k(  128) = (   0.1291174  -0.0656571  -0.0726405), wk =   0.0039062
        k(  129) = (   0.2442519   0.1438270   0.0179058), wk =   0.0039062
        k(  130) = (   0.2430201   0.1376054   0.0931689), wk =   0.0039062
        k(  131) = (   0.2417884   0.1313838   0.1684320), wk =   0.0039062
        k(  132) = (   0.2405566   0.1251622   0.2436950), wk =   0.0039062
        k(  133) = (   0.2491788   0.1687135  -0.2831466), wk =   0.0039062
        k(  134) = (   0.2479471   0.1624919  -0.2078835), wk =   0.0039062
        k(  135) = (   0.2467153   0.1562703  -0.1326204), wk =   0.0039062
        k(  136) = (   0.2454836   0.1500487  -0.0573573), wk =   0.0039062
        k(  137) = (   0.2384921   0.2876192   0.0242361), wk =   0.0039062
        k(  138) = (   0.2372603   0.2813976   0.0994991), wk =   0.0039062
        k(  139) = (   0.2360286   0.2751760   0.1747622), wk =   0.0039062
        k(  140) = (   0.2347968   0.2689544   0.2500253), wk =   0.0039062
        k(  141) = (   0.2434190   0.3125057  -0.2768163), wk =   0.0039062
        k(  142) = (   0.2421873   0.3062841  -0.2015532), wk =   0.0039062
        k(  143) = (   0.2409556   0.3000625  -0.1262901), wk =   0.0039062
        k(  144) = (   0.2397238   0.2938409  -0.0510270), wk =   0.0039062
        k(  145) = (   0.2327323   0.4314114   0.0305663), wk =   0.0039062
        k(  146) = (   0.2315006   0.4251898   0.1058294), wk =   0.0039062
        k(  147) = (   0.2302688   0.4189682   0.1810925), wk =   0.0039062
        k(  148) = (   0.2290371   0.4127466   0.2563556), wk =   0.0039062
        k(  149) = (   0.2376593   0.4562979  -0.2704860), wk =   0.0039062
        k(  150) = (   0.2364275   0.4500763  -0.1952229), wk =   0.0039062
        k(  151) = (   0.2351958   0.4438547  -0.1199598), wk =   0.0039062
        k(  152) = (   0.2339640   0.4376331  -0.0446968), wk =   0.0039062
        k(  153) = (   0.2269725   0.5752036   0.0368966), wk =   0.0039062
        k(  154) = (   0.2257408   0.5689820   0.1121597), wk =   0.0039062
        k(  155) = (   0.2245090   0.5627604   0.1874228), wk =   0.0039062
        k(  156) = (   0.2232773   0.5565388   0.2626859), wk =   0.0039062
        k(  157) = (   0.2318995   0.6000901  -0.2641557), wk =   0.0039062
        k(  158) = (   0.2306677   0.5938685  -0.1888926), wk =   0.0039062
        k(  159) = (   0.2294360   0.5876469  -0.1136296), wk =   0.0039062
        k(  160) = (   0.2282043   0.5814253  -0.0383665), wk =   0.0039062
        k(  161) = (   0.2672910  -0.4313418  -0.0074153), wk =   0.0039062
        k(  162) = (   0.2660592  -0.4375634   0.0678477), wk =   0.0039062
        k(  163) = (   0.2648275  -0.4437850   0.1431108), wk =   0.0039062
        k(  164) = (   0.2635957  -0.4500066   0.2183739), wk =   0.0039062
        k(  165) = (   0.2722179  -0.4064553  -0.3084677), wk =   0.0039062
        k(  166) = (   0.2709862  -0.4126769  -0.2332046), wk =   0.0039062
        k(  167) = (   0.2697545  -0.4188985  -0.1579415), wk =   0.0039062
        k(  168) = (   0.2685227  -0.4251201  -0.0826784), wk =   0.0039062
        k(  169) = (   0.2615312  -0.2875496  -0.0010851), wk =   0.0039062
        k(  170) = (   0.2602994  -0.2937712   0.0741780), wk =   0.0039062
        k(  171) = (   0.2590677  -0.2999928   0.1494411), wk =   0.0039062
        k(  172) = (   0.2578360  -0.3062144   0.2247042), wk =   0.0039062
        k(  173) = (   0.2664582  -0.2626631  -0.3021374), wk =   0.0039062
        k(  174) = (   0.2652264  -0.2688847  -0.2268743), wk =   0.0039062
        k(  175) = (   0.2639947  -0.2751063  -0.1516112), wk =   0.0039062
        k(  176) = (   0.2627629  -0.2813279  -0.0763482), wk =   0.0039062
        k(  177) = (   0.2557714  -0.1437574   0.0052452), wk =   0.0039062
        k(  178) = (   0.2545397  -0.1499790   0.0805083), wk =   0.0039062
        k(  179) = (   0.2533079  -0.1562006   0.1557714), wk =   0.0039062
        k(  180) = (   0.2520762  -0.1624222   0.2310345), wk =   0.0039062
        k(  181) = (   0.2606984  -0.1188709  -0.2958071), wk =   0.0039062
        k(  182) = (   0.2594666  -0.1250925  -0.2205440), wk =   0.0039062
        k(  183) = (   0.2582349  -0.1313141  -0.1452810), wk =   0.0039062
        k(  184) = (   0.2570032  -0.1375357  -0.0700179), wk =   0.0039062
        k(  185) = (   0.2500116   0.0000348   0.0115755), wk =   0.0039062
        k(  186) = (   0.2487799  -0.0061868   0.0868386), wk =   0.0039062
        k(  187) = (   0.2475481  -0.0124084   0.1621017), wk =   0.0039062
        k(  188) = (   0.2463164  -0.0186300   0.2373648), wk =   0.0039062
        k(  189) = (   0.2549386   0.0249213  -0.2894769), wk =   0.0039062
        k(  190) = (   0.2537069   0.0186997  -0.2142138), wk =   0.0039062
        k(  191) = (   0.2524751   0.0124781  -0.1389507), wk =   0.0039062
        k(  192) = (   0.2512434   0.0062565  -0.0636876), wk =   0.0039062
        k(  193) = (   0.3663778   0.2157406   0.0268587), wk =   0.0039062
        k(  194) = (   0.3651460   0.2095189   0.1021218), wk =   0.0039062
        k(  195) = (   0.3639143   0.2032973   0.1773848), wk =   0.0039062
        k(  196) = (   0.3626826   0.1970757   0.2526479), wk =   0.0039062
        k(  197) = (   0.3713048   0.2406270  -0.2741937), wk =   0.0039062
        k(  198) = (   0.3700730   0.2344054  -0.1989306), wk =   0.0039062
        k(  199) = (   0.3688413   0.2281838  -0.1236675), wk =   0.0039062
        k(  200) = (   0.3676095   0.2219622  -0.0484044), wk =   0.0039062
        k(  201) = (   0.3606180   0.3595328   0.0331889), wk =   0.0039062
        k(  202) = (   0.3593863   0.3533111   0.1084520), wk =   0.0039062
        k(  203) = (   0.3581545   0.3470895   0.1837151), wk =   0.0039062
        k(  204) = (   0.3569228   0.3408679   0.2589782), wk =   0.0039062
        k(  205) = (   0.3655450   0.3844192  -0.2678634), wk =   0.0039062
        k(  206) = (   0.3643132   0.3781976  -0.1926003), wk =   0.0039062
        k(  207) = (   0.3630815   0.3719760  -0.1173372), wk =   0.0039062
        k(  208) = (   0.3618497   0.3657544  -0.0420741), wk =   0.0039062
        k(  209) = (   0.3548582   0.5033250   0.0395192), wk =   0.0039062
        k(  210) = (   0.3536265   0.4971033   0.1147823), wk =   0.0039062
        k(  211) = (   0.3523947   0.4908817   0.1900454), wk =   0.0039062
        k(  212) = (   0.3511630   0.4846601   0.2653085), wk =   0.0039062
        k(  213) = (   0.3597852   0.5282114  -0.2615331), wk =   0.0039062
        k(  214) = (   0.3585535   0.5219898  -0.1862700), wk =   0.0039062
        k(  215) = (   0.3573217   0.5157682  -0.1110069), wk =   0.0039062
        k(  216) = (   0.3560900   0.5095466  -0.0357439), wk =   0.0039062
        k(  217) = (   0.3490984   0.6471172   0.0458495), wk =   0.0039062
        k(  218) = (   0.3478667   0.6408955   0.1211126), wk =   0.0039062
        k(  219) = (   0.3466350   0.6346739   0.1963757), wk =   0.0039062
        k(  220) = (   0.3454032   0.6284523   0.2716388), wk =   0.0039062
        k(  221) = (   0.3540254   0.6720036  -0.2552028), wk =   0.0039062
        k(  222) = (   0.3527937   0.6657820  -0.1799398), wk =   0.0039062
        k(  223) = (   0.3515619   0.6595604  -0.1046767), wk =   0.0039062
        k(  224) = (   0.3503302   0.6533388  -0.0294136), wk =   0.0039062
        k(  225) = (   0.3894169  -0.3594282   0.0015375), wk =   0.0039062
        k(  226) = (   0.3881852  -0.3656499   0.0768006), wk =   0.0039062
        k(  227) = (   0.3869534  -0.3718715   0.1520637), wk =   0.0039062
        k(  228) = (   0.3857217  -0.3780931   0.2273268), wk =   0.0039062
        k(  229) = (   0.3943439  -0.3345418  -0.2995148), wk =   0.0039062
        k(  230) = (   0.3931121  -0.3407634  -0.2242517), wk =   0.0039062
        k(  231) = (   0.3918804  -0.3469850  -0.1489886), wk =   0.0039062
        k(  232) = (   0.3906486  -0.3532066  -0.0737255), wk =   0.0039062
        k(  233) = (   0.3836571  -0.2156360   0.0078678), wk =   0.0039062
        k(  234) = (   0.3824254  -0.2218577   0.0831309), wk =   0.0039062
        k(  235) = (   0.3811936  -0.2280793   0.1583940), wk =   0.0039062
        k(  236) = (   0.3799619  -0.2343009   0.2336571), wk =   0.0039062
        k(  237) = (   0.3885841  -0.1907496  -0.2931845), wk =   0.0039062
        k(  238) = (   0.3873523  -0.1969712  -0.2179214), wk =   0.0039062
        k(  239) = (   0.3861206  -0.2031928  -0.1426584), wk =   0.0039062
        k(  240) = (   0.3848889  -0.2094144  -0.0673953), wk =   0.0039062
        k(  241) = (   0.3778973  -0.0718438   0.0141981), wk =   0.0039062
        k(  242) = (   0.3766656  -0.0780655   0.0894612), wk =   0.0039062
        k(  243) = (   0.3754339  -0.0842871   0.1647243), wk =   0.0039062
        k(  244) = (   0.3742021  -0.0905087   0.2399874), wk =   0.0039062
        k(  245) = (   0.3828243  -0.0469574  -0.2868542), wk =   0.0039062
        k(  246) = (   0.3815926  -0.0531790  -0.2115912), wk =   0.0039062
        k(  247) = (   0.3803608  -0.0594006  -0.1363281), wk =   0.0039062
        k(  248) = (   0.3791291  -0.0656222  -0.0610650), wk =   0.0039062
        k(  249) = (   0.3721376   0.0719484   0.0205284), wk =   0.0039062
        k(  250) = (   0.3709058   0.0657267   0.0957915), wk =   0.0039062
        k(  251) = (   0.3696741   0.0595051   0.1710546), wk =   0.0039062
        k(  252) = (   0.3684423   0.0532835   0.2463176), wk =   0.0039062
        k(  253) = (   0.3770645   0.0968348  -0.2805240), wk =   0.0039062
        k(  254) = (   0.3758328   0.0906132  -0.2052609), wk =   0.0039062
        k(  255) = (   0.3746010   0.0843916  -0.1299978), wk =   0.0039062
        k(  256) = (   0.3733693   0.0781700  -0.0547347), wk =   0.0039062
        k(  257) = (  -0.4885037  -0.2876541  -0.0358116), wk =   0.0039062
        k(  258) = (  -0.4897355  -0.2938757   0.0394515), wk =   0.0039062
        k(  259) = (  -0.4909672  -0.3000973   0.1147146), wk =   0.0039062
        k(  260) = (  -0.4921989  -0.3063189   0.1899777), wk =   0.0039062
        k(  261) = (  -0.4835767  -0.2627676  -0.3368639), wk =   0.0039062
        k(  262) = (  -0.4848085  -0.2689892  -0.2616008), wk =   0.0039062
        k(  263) = (  -0.4860402  -0.2752108  -0.1863377), wk =   0.0039062
        k(  264) = (  -0.4872720  -0.2814325  -0.1110746), wk =   0.0039062
        k(  265) = (  -0.4942635  -0.1438619  -0.0294813), wk =   0.0039062
        k(  266) = (  -0.4954952  -0.1500835   0.0457818), wk =   0.0039062
        k(  267) = (  -0.4967270  -0.1563051   0.1210449), wk =   0.0039062
        k(  268) = (  -0.4979587  -0.1625267   0.1963080), wk =   0.0039062
        k(  269) = (  -0.4893365  -0.1189754  -0.3305336), wk =   0.0039062
        k(  270) = (  -0.4905683  -0.1251970  -0.2552705), wk =   0.0039062
        k(  271) = (  -0.4918000  -0.1314186  -0.1800074), wk =   0.0039062
        k(  272) = (  -0.4930317  -0.1376403  -0.1047444), wk =   0.0039062
        k(  273) = (  -0.5000233  -0.0000697  -0.0231510), wk =   0.0039062
        k(  274) = (  -0.5012550  -0.0062913   0.0521121), wk =   0.0039062
        k(  275) = (  -0.5024868  -0.0125129   0.1273752), wk =   0.0039062
        k(  276) = (  -0.5037185  -0.0187345   0.2026383), wk =   0.0039062
        k(  277) = (  -0.4950963   0.0248168  -0.3242033), wk =   0.0039062
        k(  278) = (  -0.4963280   0.0185952  -0.2489403), wk =   0.0039062
        k(  279) = (  -0.4975598   0.0123736  -0.1736772), wk =   0.0039062
        k(  280) = (  -0.4987915   0.0061519  -0.0984141), wk =   0.0039062
        k(  281) = (  -0.5057830   0.1437225  -0.0168207), wk =   0.0039062
        k(  282) = (  -0.5070148   0.1375009   0.0584424), wk =   0.0039062
        k(  283) = (  -0.5082465   0.1312793   0.1337055), wk =   0.0039062
        k(  284) = (  -0.5094783   0.1250577   0.2089686), wk =   0.0039062
        k(  285) = (  -0.5008561   0.1686090  -0.3178731), wk =   0.0039062
        k(  286) = (  -0.5020878   0.1623874  -0.2426100), wk =   0.0039062
        k(  287) = (  -0.5033196   0.1561658  -0.1673469), wk =   0.0039062
        k(  288) = (  -0.5045513   0.1499441  -0.0920838), wk =   0.0039062
        k(  289) = (  -0.4654646  -0.8628229  -0.0611327), wk =   0.0039062
        k(  290) = (  -0.4666963  -0.8690445   0.0141304), wk =   0.0039062
        k(  291) = (  -0.4679281  -0.8752661   0.0893935), wk =   0.0039062
        k(  292) = (  -0.4691598  -0.8814877   0.1646566), wk =   0.0039062
        k(  293) = (  -0.4605376  -0.8379364  -0.3621850), wk =   0.0039062
        k(  294) = (  -0.4617694  -0.8441580  -0.2869219), wk =   0.0039062
        k(  295) = (  -0.4630011  -0.8503796  -0.2116588), wk =   0.0039062
        k(  296) = (  -0.4642329  -0.8566013  -0.1363958), wk =   0.0039062
        k(  297) = (  -0.4712244  -0.7190307  -0.0548024), wk =   0.0039062
        k(  298) = (  -0.4724561  -0.7252523   0.0204607), wk =   0.0039062
        k(  299) = (  -0.4736879  -0.7314739   0.0957238), wk =   0.0039062
        k(  300) = (  -0.4749196  -0.7376955   0.1709869), wk =   0.0039062
        k(  301) = (  -0.4662974  -0.6941442  -0.3558547), wk =   0.0039062
        k(  302) = (  -0.4675291  -0.7003658  -0.2805917), wk =   0.0039062
        k(  303) = (  -0.4687609  -0.7065874  -0.2053286), wk =   0.0039062
        k(  304) = (  -0.4699926  -0.7128091  -0.1300655), wk =   0.0039062
        k(  305) = (  -0.4769842  -0.5752385  -0.0484721), wk =   0.0039062
        k(  306) = (  -0.4782159  -0.5814601   0.0267910), wk =   0.0039062
        k(  307) = (  -0.4794476  -0.5876817   0.1020541), wk =   0.0039062
        k(  308) = (  -0.4806794  -0.5939033   0.1773171), wk =   0.0039062
        k(  309) = (  -0.4720572  -0.5503520  -0.3495245), wk =   0.0039062
        k(  310) = (  -0.4732889  -0.5565736  -0.2742614), wk =   0.0039062
        k(  311) = (  -0.4745207  -0.5627952  -0.1989983), wk =   0.0039062
        k(  312) = (  -0.4757524  -0.5690169  -0.1237352), wk =   0.0039062
        k(  313) = (  -0.4827439  -0.4314463  -0.0421418), wk =   0.0039062
        k(  314) = (  -0.4839757  -0.4376679   0.0331213), wk =   0.0039062
        k(  315) = (  -0.4852074  -0.4438895   0.1083843), wk =   0.0039062
        k(  316) = (  -0.4864392  -0.4501111   0.1836474), wk =   0.0039062
        k(  317) = (  -0.4778170  -0.4065598  -0.3431942), wk =   0.0039062
        k(  318) = (  -0.4790487  -0.4127814  -0.2679311), wk =   0.0039062
        k(  319) = (  -0.4802804  -0.4190030  -0.1926680), wk =   0.0039062
        k(  320) = (  -0.4815122  -0.4252247  -0.1174049), wk =   0.0039062
        k(  321) = (  -0.3663778  -0.2157406  -0.0268587), wk =   0.0039062
        k(  322) = (  -0.3676095  -0.2219622   0.0484044), wk =   0.0039062
        k(  323) = (  -0.3688413  -0.2281838   0.1236675), wk =   0.0039062
        k(  324) = (  -0.3700730  -0.2344054   0.1989306), wk =   0.0039062
        k(  325) = (  -0.3614508  -0.1908541  -0.3279110), wk =   0.0039062
        k(  326) = (  -0.3626826  -0.1970757  -0.2526479), wk =   0.0039062
        k(  327) = (  -0.3639143  -0.2032973  -0.1773848), wk =   0.0039062
        k(  328) = (  -0.3651460  -0.2095189  -0.1021218), wk =   0.0039062
        k(  329) = (  -0.3721376  -0.0719484  -0.0205284), wk =   0.0039062
        k(  330) = (  -0.3733693  -0.0781700   0.0547347), wk =   0.0039062
        k(  331) = (  -0.3746010  -0.0843916   0.1299978), wk =   0.0039062
        k(  332) = (  -0.3758328  -0.0906132   0.2052609), wk =   0.0039062
        k(  333) = (  -0.3672106  -0.0470619  -0.3215807), wk =   0.0039062
        k(  334) = (  -0.3684423  -0.0532835  -0.2463176), wk =   0.0039062
        k(  335) = (  -0.3696741  -0.0595051  -0.1710546), wk =   0.0039062
        k(  336) = (  -0.3709058  -0.0657267  -0.0957915), wk =   0.0039062
        k(  337) = (  -0.3778973   0.0718438  -0.0141981), wk =   0.0039062
        k(  338) = (  -0.3791291   0.0656222   0.0610650), wk =   0.0039062
        k(  339) = (  -0.3803608   0.0594006   0.1363281), wk =   0.0039062
        k(  340) = (  -0.3815926   0.0531790   0.2115912), wk =   0.0039062
        k(  341) = (  -0.3729704   0.0967303  -0.3152505), wk =   0.0039062
        k(  342) = (  -0.3742021   0.0905087  -0.2399874), wk =   0.0039062
        k(  343) = (  -0.3754339   0.0842871  -0.1647243), wk =   0.0039062
        k(  344) = (  -0.3766656   0.0780655  -0.0894612), wk =   0.0039062
        k(  345) = (  -0.3836571   0.2156360  -0.0078678), wk =   0.0039062
        k(  346) = (  -0.3848889   0.2094144   0.0673953), wk =   0.0039062
        k(  347) = (  -0.3861206   0.2031928   0.1426584), wk =   0.0039062
        k(  348) = (  -0.3873523   0.1969712   0.2179214), wk =   0.0039062
        k(  349) = (  -0.3787301   0.2405225  -0.3089202), wk =   0.0039062
        k(  350) = (  -0.3799619   0.2343009  -0.2336571), wk =   0.0039062
        k(  351) = (  -0.3811936   0.2280793  -0.1583940), wk =   0.0039062
        k(  352) = (  -0.3824254   0.2218577  -0.0831309), wk =   0.0039062
        k(  353) = (  -0.3433387  -0.7909094  -0.0521798), wk =   0.0039062
        k(  354) = (  -0.3445704  -0.7971310   0.0230833), wk =   0.0039062
        k(  355) = (  -0.3458022  -0.8033526   0.0983464), wk =   0.0039062
        k(  356) = (  -0.3470339  -0.8095742   0.1736095), wk =   0.0039062
        k(  357) = (  -0.3384117  -0.7660229  -0.3532321), wk =   0.0039062
        k(  358) = (  -0.3396434  -0.7722445  -0.2779690), wk =   0.0039062
        k(  359) = (  -0.3408752  -0.7784661  -0.2027060), wk =   0.0039062
        k(  360) = (  -0.3421069  -0.7846877  -0.1274429), wk =   0.0039062
        k(  361) = (  -0.3490984  -0.6471172  -0.0458495), wk =   0.0039062
        k(  362) = (  -0.3503302  -0.6533388   0.0294136), wk =   0.0039062
        k(  363) = (  -0.3515619  -0.6595604   0.1046767), wk =   0.0039062
        k(  364) = (  -0.3527937  -0.6657820   0.1799398), wk =   0.0039062
        k(  365) = (  -0.3441715  -0.6222307  -0.3469019), wk =   0.0039062
        k(  366) = (  -0.3454032  -0.6284523  -0.2716388), wk =   0.0039062
        k(  367) = (  -0.3466350  -0.6346739  -0.1963757), wk =   0.0039062
        k(  368) = (  -0.3478667  -0.6408955  -0.1211126), wk =   0.0039062
        k(  369) = (  -0.3548582  -0.5033250  -0.0395192), wk =   0.0039062
        k(  370) = (  -0.3560900  -0.5095466   0.0357439), wk =   0.0039062
        k(  371) = (  -0.3573217  -0.5157682   0.1110069), wk =   0.0039062
        k(  372) = (  -0.3585535  -0.5219898   0.1862700), wk =   0.0039062
        k(  373) = (  -0.3499313  -0.4784385  -0.3405716), wk =   0.0039062
        k(  374) = (  -0.3511630  -0.4846601  -0.2653085), wk =   0.0039062
        k(  375) = (  -0.3523947  -0.4908817  -0.1900454), wk =   0.0039062
        k(  376) = (  -0.3536265  -0.4971033  -0.1147823), wk =   0.0039062
        k(  377) = (  -0.3606180  -0.3595328  -0.0331889), wk =   0.0039062
        k(  378) = (  -0.3618497  -0.3657544   0.0420741), wk =   0.0039062
        k(  379) = (  -0.3630815  -0.3719760   0.1173372), wk =   0.0039062
        k(  380) = (  -0.3643132  -0.3781976   0.1926003), wk =   0.0039062
        k(  381) = (  -0.3556910  -0.3346463  -0.3342413), wk =   0.0039062
        k(  382) = (  -0.3569228  -0.3408679  -0.2589782), wk =   0.0039062
        k(  383) = (  -0.3581545  -0.3470895  -0.1837151), wk =   0.0039062
        k(  384) = (  -0.3593863  -0.3533111  -0.1084520), wk =   0.0039062
        k(  385) = (  -0.2442519  -0.1438270  -0.0179058), wk =   0.0039062
        k(  386) = (  -0.2454836  -0.1500487   0.0573573), wk =   0.0039062
        k(  387) = (  -0.2467153  -0.1562703   0.1326204), wk =   0.0039062
        k(  388) = (  -0.2479471  -0.1624919   0.2078835), wk =   0.0039062
        k(  389) = (  -0.2393249  -0.1189406  -0.3189581), wk =   0.0039062
        k(  390) = (  -0.2405566  -0.1251622  -0.2436950), wk =   0.0039062
        k(  391) = (  -0.2417884  -0.1313838  -0.1684320), wk =   0.0039062
        k(  392) = (  -0.2430201  -0.1376054  -0.0931689), wk =   0.0039062
        k(  393) = (  -0.2500116  -0.0000348  -0.0115755), wk =   0.0039062
        k(  394) = (  -0.2512434  -0.0062565   0.0636876), wk =   0.0039062
        k(  395) = (  -0.2524751  -0.0124781   0.1389507), wk =   0.0039062
        k(  396) = (  -0.2537069  -0.0186997   0.2142138), wk =   0.0039062
        k(  397) = (  -0.2450847   0.0248516  -0.3126278), wk =   0.0039062
        k(  398) = (  -0.2463164   0.0186300  -0.2373648), wk =   0.0039062
        k(  399) = (  -0.2475481   0.0124084  -0.1621017), wk =   0.0039062
        k(  400) = (  -0.2487799   0.0061868  -0.0868386), wk =   0.0039062
        k(  401) = (  -0.2557714   0.1437574  -0.0052452), wk =   0.0039062
        k(  402) = (  -0.2570032   0.1375357   0.0700179), wk =   0.0039062
        k(  403) = (  -0.2582349   0.1313141   0.1452810), wk =   0.0039062
        k(  404) = (  -0.2594666   0.1250925   0.2205440), wk =   0.0039062
        k(  405) = (  -0.2508444   0.1686438  -0.3062976), wk =   0.0039062
        k(  406) = (  -0.2520762   0.1624222  -0.2310345), wk =   0.0039062
        k(  407) = (  -0.2533079   0.1562006  -0.1557714), wk =   0.0039062
        k(  408) = (  -0.2545397   0.1499790  -0.0805083), wk =   0.0039062
        k(  409) = (  -0.2615312   0.2875496   0.0010851), wk =   0.0039062
        k(  410) = (  -0.2627629   0.2813279   0.0763482), wk =   0.0039062
        k(  411) = (  -0.2639947   0.2751063   0.1516112), wk =   0.0039062
        k(  412) = (  -0.2652264   0.2688847   0.2268743), wk =   0.0039062
        k(  413) = (  -0.2566042   0.3124360  -0.2999673), wk =   0.0039062
        k(  414) = (  -0.2578360   0.3062144  -0.2247042), wk =   0.0039062
        k(  415) = (  -0.2590677   0.2999928  -0.1494411), wk =   0.0039062
        k(  416) = (  -0.2602994   0.2937712  -0.0741780), wk =   0.0039062
        k(  417) = (  -0.2212127  -0.7189958  -0.0432269), wk =   0.0039062
        k(  418) = (  -0.2224445  -0.7252175   0.0320362), wk =   0.0039062
        k(  419) = (  -0.2236762  -0.7314391   0.1072993), wk =   0.0039062
        k(  420) = (  -0.2249080  -0.7376607   0.1825624), wk =   0.0039062
        k(  421) = (  -0.2162858  -0.6941094  -0.3442792), wk =   0.0039062
        k(  422) = (  -0.2175175  -0.7003310  -0.2690162), wk =   0.0039062
        k(  423) = (  -0.2187493  -0.7065526  -0.1937531), wk =   0.0039062
        k(  424) = (  -0.2199810  -0.7127742  -0.1184900), wk =   0.0039062
        k(  425) = (  -0.2269725  -0.5752036  -0.0368966), wk =   0.0039062
        k(  426) = (  -0.2282043  -0.5814253   0.0383665), wk =   0.0039062
        k(  427) = (  -0.2294360  -0.5876469   0.1136296), wk =   0.0039062
        k(  428) = (  -0.2306677  -0.5938685   0.1888926), wk =   0.0039062
        k(  429) = (  -0.2220455  -0.5503172  -0.3379490), wk =   0.0039062
        k(  430) = (  -0.2232773  -0.5565388  -0.2626859), wk =   0.0039062
        k(  431) = (  -0.2245090  -0.5627604  -0.1874228), wk =   0.0039062
        k(  432) = (  -0.2257408  -0.5689820  -0.1121597), wk =   0.0039062
        k(  433) = (  -0.2327323  -0.4314114  -0.0305663), wk =   0.0039062
        k(  434) = (  -0.2339640  -0.4376331   0.0446968), wk =   0.0039062
        k(  435) = (  -0.2351958  -0.4438547   0.1199598), wk =   0.0039062
        k(  436) = (  -0.2364275  -0.4500763   0.1952229), wk =   0.0039062
        k(  437) = (  -0.2278053  -0.4065250  -0.3316187), wk =   0.0039062
        k(  438) = (  -0.2290371  -0.4127466  -0.2563556), wk =   0.0039062
        k(  439) = (  -0.2302688  -0.4189682  -0.1810925), wk =   0.0039062
        k(  440) = (  -0.2315006  -0.4251898  -0.1058294), wk =   0.0039062
        k(  441) = (  -0.2384921  -0.2876192  -0.0242361), wk =   0.0039062
        k(  442) = (  -0.2397238  -0.2938409   0.0510270), wk =   0.0039062
        k(  443) = (  -0.2409556  -0.3000625   0.1262901), wk =   0.0039062
        k(  444) = (  -0.2421873  -0.3062841   0.2015532), wk =   0.0039062
        k(  445) = (  -0.2335651  -0.2627328  -0.3252884), wk =   0.0039062
        k(  446) = (  -0.2347968  -0.2689544  -0.2500253), wk =   0.0039062
        k(  447) = (  -0.2360286  -0.2751760  -0.1747622), wk =   0.0039062
        k(  448) = (  -0.2372603  -0.2813976  -0.0994991), wk =   0.0039062
        k(  449) = (  -0.1221259  -0.0719135  -0.0089529), wk =   0.0039062
        k(  450) = (  -0.1233577  -0.0781351   0.0663102), wk =   0.0039062
        k(  451) = (  -0.1245894  -0.0843568   0.1415733), wk =   0.0039062
        k(  452) = (  -0.1258212  -0.0905784   0.2168364), wk =   0.0039062
        k(  453) = (  -0.1171990  -0.0470270  -0.3100052), wk =   0.0039062
        k(  454) = (  -0.1184307  -0.0532487  -0.2347422), wk =   0.0039062
        k(  455) = (  -0.1196624  -0.0594703  -0.1594791), wk =   0.0039062
        k(  456) = (  -0.1208942  -0.0656919  -0.0842160), wk =   0.0039062
        k(  457) = (  -0.1278857   0.0718787  -0.0026226), wk =   0.0039062
        k(  458) = (  -0.1291174   0.0656571   0.0726405), wk =   0.0039062
        k(  459) = (  -0.1303492   0.0594354   0.1479036), wk =   0.0039062
        k(  460) = (  -0.1315809   0.0532138   0.2231667), wk =   0.0039062
        k(  461) = (  -0.1229587   0.0967652  -0.3036750), wk =   0.0039062
        k(  462) = (  -0.1241905   0.0905435  -0.2284119), wk =   0.0039062
        k(  463) = (  -0.1254222   0.0843219  -0.1531488), wk =   0.0039062
        k(  464) = (  -0.1266540   0.0781003  -0.0778857), wk =   0.0039062
        k(  465) = (  -0.1336455   0.2156709   0.0037077), wk =   0.0039062
        k(  466) = (  -0.1348772   0.2094493   0.0789708), wk =   0.0039062
        k(  467) = (  -0.1361090   0.2032276   0.1542338), wk =   0.0039062
        k(  468) = (  -0.1373407   0.1970060   0.2294969), wk =   0.0039062
        k(  469) = (  -0.1287185   0.2405574  -0.2973447), wk =   0.0039062
        k(  470) = (  -0.1299503   0.2343357  -0.2220816), wk =   0.0039062
        k(  471) = (  -0.1311820   0.2281141  -0.1468185), wk =   0.0039062
        k(  472) = (  -0.1324137   0.2218925  -0.0715554), wk =   0.0039062
        k(  473) = (  -0.1394053   0.3594631   0.0100380), wk =   0.0039062
        k(  474) = (  -0.1406370   0.3532415   0.0853010), wk =   0.0039062
        k(  475) = (  -0.1418688   0.3470198   0.1605641), wk =   0.0039062
        k(  476) = (  -0.1431005   0.3407982   0.2358272), wk =   0.0039062
        k(  477) = (  -0.1344783   0.3843496  -0.2910144), wk =   0.0039062
        k(  478) = (  -0.1357100   0.3781279  -0.2157513), wk =   0.0039062
        k(  479) = (  -0.1369418   0.3719063  -0.1404882), wk =   0.0039062
        k(  480) = (  -0.1381735   0.3656847  -0.0652251), wk =   0.0039062
        k(  481) = (  -0.0990868  -0.6470823  -0.0342740), wk =   0.0039062
        k(  482) = (  -0.1003186  -0.6533039   0.0409891), wk =   0.0039062
        k(  483) = (  -0.1015503  -0.6595256   0.1162522), wk =   0.0039062
        k(  484) = (  -0.1027820  -0.6657472   0.1915153), wk =   0.0039062
        k(  485) = (  -0.0941598  -0.6221958  -0.3353264), wk =   0.0039062
        k(  486) = (  -0.0953916  -0.6284175  -0.2600633), wk =   0.0039062
        k(  487) = (  -0.0966233  -0.6346391  -0.1848002), wk =   0.0039062
        k(  488) = (  -0.0978551  -0.6408607  -0.1095371), wk =   0.0039062
        k(  489) = (  -0.1048466  -0.5032901  -0.0279437), wk =   0.0039062
        k(  490) = (  -0.1060783  -0.5095117   0.0473194), wk =   0.0039062
        k(  491) = (  -0.1073101  -0.5157334   0.1225824), wk =   0.0039062
        k(  492) = (  -0.1085418  -0.5219550   0.1978455), wk =   0.0039062
        k(  493) = (  -0.0999196  -0.4784036  -0.3289961), wk =   0.0039062
        k(  494) = (  -0.1011514  -0.4846253  -0.2537330), wk =   0.0039062
        k(  495) = (  -0.1023831  -0.4908469  -0.1784699), wk =   0.0039062
        k(  496) = (  -0.1036148  -0.4970685  -0.1032068), wk =   0.0039062
        k(  497) = (  -0.1106064  -0.3594979  -0.0216134), wk =   0.0039062
        k(  498) = (  -0.1118381  -0.3657195   0.0536496), wk =   0.0039062
        k(  499) = (  -0.1130699  -0.3719412   0.1289127), wk =   0.0039062
        k(  500) = (  -0.1143016  -0.3781628   0.2041758), wk =   0.0039062
        k(  501) = (  -0.1056794  -0.3346114  -0.3226658), wk =   0.0039062
        k(  502) = (  -0.1069111  -0.3408331  -0.2474027), wk =   0.0039062
        k(  503) = (  -0.1081429  -0.3470547  -0.1721396), wk =   0.0039062
        k(  504) = (  -0.1093746  -0.3532763  -0.0968765), wk =   0.0039062
        k(  505) = (  -0.1163661  -0.2157057  -0.0152832), wk =   0.0039062
        k(  506) = (  -0.1175979  -0.2219273   0.0599799), wk =   0.0039062
        k(  507) = (  -0.1188296  -0.2281490   0.1352430), wk =   0.0039062
        k(  508) = (  -0.1200614  -0.2343706   0.2105061), wk =   0.0039062
        k(  509) = (  -0.1114392  -0.1908192  -0.3163355), wk =   0.0039062
        k(  510) = (  -0.1126709  -0.1970409  -0.2410724), wk =   0.0039062
        k(  511) = (  -0.1139027  -0.2032625  -0.1658093), wk =   0.0039062
        k(  512) = (  -0.1151344  -0.2094841  -0.0905463), wk =   0.0039062

                       cryst. coord.
        k(    1) = (   0.0000000   0.0000000   0.0000000), wk =   0.0039062
        k(    2) = (   0.0000000   0.0000000   0.1250000), wk =   0.0039062
        k(    3) = (   0.0000000   0.0000000   0.2500000), wk =   0.0039062
        k(    4) = (   0.0000000   0.0000000   0.3750000), wk =   0.0039062
        k(    5) = (   0.0000000  -0.0000000  -0.5000000), wk =   0.0039062
        k(    6) = (   0.0000000  -0.0000000  -0.3750000), wk =   0.0039062
        k(    7) = (   0.0000000  -0.0000000  -0.2500000), wk =   0.0039062
        k(    8) = (   0.0000000  -0.0000000  -0.1250000), wk =   0.0039062
        k(    9) = (   0.0000000   0.1250000  -0.0000000), wk =   0.0039062
        k(   10) = (   0.0000000   0.1250000   0.1250000), wk =   0.0039062
        k(   11) = (   0.0000000   0.1250000   0.2500000), wk =   0.0039062
        k(   12) = (   0.0000000   0.1250000   0.3750000), wk =   0.0039062
        k(   13) = (   0.0000000   0.1250000  -0.5000000), wk =   0.0039062
        k(   14) = (   0.0000000   0.1250000  -0.3750000), wk =   0.0039062
        k(   15) = (   0.0000000   0.1250000  -0.2500000), wk =   0.0039062
        k(   16) = (   0.0000000   0.1250000  -0.1250000), wk =   0.0039062
        k(   17) = (   0.0000000   0.2500000  -0.0000000), wk =   0.0039062
        k(   18) = (   0.0000000   0.2500000   0.1250000), wk =   0.0039062
        k(   19) = (   0.0000000   0.2500000   0.2500000), wk =   0.0039062
        k(   20) = (   0.0000000   0.2500000   0.3750000), wk =   0.0039062
        k(   21) = (   0.0000000   0.2500000  -0.5000000), wk =   0.0039062
        k(   22) = (   0.0000000   0.2500000  -0.3750000), wk =   0.0039062
        k(   23) = (   0.0000000   0.2500000  -0.2500000), wk =   0.0039062
        k(   24) = (   0.0000000   0.2500000  -0.1250000), wk =   0.0039062
        k(   25) = (   0.0000000   0.3750000  -0.0000000), wk =   0.0039062
        k(   26) = (   0.0000000   0.3750000   0.1250000), wk =   0.0039062
        k(   27) = (   0.0000000   0.3750000   0.2500000), wk =   0.0039062
        k(   28) = (   0.0000000   0.3750000   0.3750000), wk =   0.0039062
        k(   29) = (   0.0000000   0.3750000  -0.5000000), wk =   0.0039062
        k(   30) = (   0.0000000   0.3750000  -0.3750000), wk =   0.0039062
        k(   31) = (   0.0000000   0.3750000  -0.2500000), wk =   0.0039062
        k(   32) = (   0.0000000   0.3750000  -0.1250000), wk =   0.0039062
        k(   33) = (  -0.0000000  -0.5000000   0.0000000), wk =   0.0039062
        k(   34) = (  -0.0000000  -0.5000000   0.1250000), wk =   0.0039062
        k(   35) = (  -0.0000000  -0.5000000   0.2500000), wk =   0.0039062
        k(   36) = (  -0.0000000  -0.5000000   0.3750000), wk =   0.0039062
        k(   37) = (  -0.0000000  -0.5000000  -0.5000000), wk =   0.0039062
        k(   38) = (  -0.0000000  -0.5000000  -0.3750000), wk =   0.0039062
        k(   39) = (  -0.0000000  -0.5000000  -0.2500000), wk =   0.0039062
        k(   40) = (  -0.0000000  -0.5000000  -0.1250000), wk =   0.0039062
        k(   41) = (  -0.0000000  -0.3750000   0.0000000), wk =   0.0039062
        k(   42) = (  -0.0000000  -0.3750000   0.1250000), wk =   0.0039062
        k(   43) = (  -0.0000000  -0.3750000   0.2500000), wk =   0.0039062
        k(   44) = (  -0.0000000  -0.3750000   0.3750000), wk =   0.0039062
        k(   45) = (  -0.0000000  -0.3750000  -0.5000000), wk =   0.0039062
        k(   46) = (  -0.0000000  -0.3750000  -0.3750000), wk =   0.0039062
        k(   47) = (  -0.0000000  -0.3750000  -0.2500000), wk =   0.0039062
        k(   48) = (  -0.0000000  -0.3750000  -0.1250000), wk =   0.0039062
        k(   49) = (  -0.0000000  -0.2500000   0.0000000), wk =   0.0039062
        k(   50) = (  -0.0000000  -0.2500000   0.1250000), wk =   0.0039062
        k(   51) = (  -0.0000000  -0.2500000   0.2500000), wk =   0.0039062
        k(   52) = (  -0.0000000  -0.2500000   0.3750000), wk =   0.0039062
        k(   53) = (  -0.0000000  -0.2500000  -0.5000000), wk =   0.0039062
        k(   54) = (  -0.0000000  -0.2500000  -0.3750000), wk =   0.0039062
        k(   55) = (  -0.0000000  -0.2500000  -0.2500000), wk =   0.0039062
        k(   56) = (  -0.0000000  -0.2500000  -0.1250000), wk =   0.0039062
        k(   57) = (  -0.0000000  -0.1250000   0.0000000), wk =   0.0039062
        k(   58) = (  -0.0000000  -0.1250000   0.1250000), wk =   0.0039062
        k(   59) = (  -0.0000000  -0.1250000   0.2500000), wk =   0.0039062
        k(   60) = (  -0.0000000  -0.1250000   0.3750000), wk =   0.0039062
        k(   61) = (  -0.0000000  -0.1250000  -0.5000000), wk =   0.0039062
        k(   62) = (  -0.0000000  -0.1250000  -0.3750000), wk =   0.0039062
        k(   63) = (  -0.0000000  -0.1250000  -0.2500000), wk =   0.0039062
        k(   64) = (  -0.0000000  -0.1250000  -0.1250000), wk =   0.0039062
        k(   65) = (   0.1250000   0.0000000  -0.0000000), wk =   0.0039062
        k(   66) = (   0.1250000  -0.0000000   0.1250000), wk =   0.0039062
        k(   67) = (   0.1250000  -0.0000000   0.2500000), wk =   0.0039062
        k(   68) = (   0.1250000  -0.0000000   0.3750000), wk =   0.0039062
        k(   69) = (   0.1250000   0.0000000  -0.5000000), wk =   0.0039062
        k(   70) = (   0.1250000  -0.0000000  -0.3750000), wk =   0.0039062
        k(   71) = (   0.1250000  -0.0000000  -0.2500000), wk =   0.0039062
        k(   72) = (   0.1250000  -0.0000000  -0.1250000), wk =   0.0039062
        k(   73) = (   0.1250000   0.1250000   0.0000000), wk =   0.0039062
        k(   74) = (   0.1250000   0.1250000   0.1250000), wk =   0.0039062
        k(   75) = (   0.1250000   0.1250000   0.2500000), wk =   0.0039062
        k(   76) = (   0.1250000   0.1250000   0.3750000), wk =   0.0039062
        k(   77) = (   0.1250000   0.1250000  -0.5000000), wk =   0.0039062
        k(   78) = (   0.1250000   0.1250000  -0.3750000), wk =   0.0039062
        k(   79) = (   0.1250000   0.1250000  -0.2500000), wk =   0.0039062
        k(   80) = (   0.1250000   0.1250000  -0.1250000), wk =   0.0039062
        k(   81) = (   0.1250000   0.2500000   0.0000000), wk =   0.0039062
        k(   82) = (   0.1250000   0.2500000   0.1250000), wk =   0.0039062
        k(   83) = (   0.1250000   0.2500000   0.2500000), wk =   0.0039062
        k(   84) = (   0.1250000   0.2500000   0.3750000), wk =   0.0039062
        k(   85) = (   0.1250000   0.2500000  -0.5000000), wk =   0.0039062
        k(   86) = (   0.1250000   0.2500000  -0.3750000), wk =   0.0039062
        k(   87) = (   0.1250000   0.2500000  -0.2500000), wk =   0.0039062
        k(   88) = (   0.1250000   0.2500000  -0.1250000), wk =   0.0039062
        k(   89) = (   0.1250000   0.3750000   0.0000000), wk =   0.0039062
        k(   90) = (   0.1250000   0.3750000   0.1250000), wk =   0.0039062
        k(   91) = (   0.1250000   0.3750000   0.2500000), wk =   0.0039062
        k(   92) = (   0.1250000   0.3750000   0.3750000), wk =   0.0039062
        k(   93) = (   0.1250000   0.3750000  -0.5000000), wk =   0.0039062
        k(   94) = (   0.1250000   0.3750000  -0.3750000), wk =   0.0039062
        k(   95) = (   0.1250000   0.3750000  -0.2500000), wk =   0.0039062
        k(   96) = (   0.1250000   0.3750000  -0.1250000), wk =   0.0039062
        k(   97) = (   0.1250000  -0.5000000   0.0000000), wk =   0.0039062
        k(   98) = (   0.1250000  -0.5000000   0.1250000), wk =   0.0039062
        k(   99) = (   0.1250000  -0.5000000   0.2500000), wk =   0.0039062
        k(  100) = (   0.1250000  -0.5000000   0.3750000), wk =   0.0039062
        k(  101) = (   0.1250000  -0.5000000  -0.5000000), wk =   0.0039062
        k(  102) = (   0.1250000  -0.5000000  -0.3750000), wk =   0.0039062
        k(  103) = (   0.1250000  -0.5000000  -0.2500000), wk =   0.0039062
        k(  104) = (   0.1250000  -0.5000000  -0.1250000), wk =   0.0039062
        k(  105) = (   0.1250000  -0.3750000   0.0000000), wk =   0.0039062
        k(  106) = (   0.1250000  -0.3750000   0.1250000), wk =   0.0039062
        k(  107) = (   0.1250000  -0.3750000   0.2500000), wk =   0.0039062
        k(  108) = (   0.1250000  -0.3750000   0.3750000), wk =   0.0039062
        k(  109) = (   0.1250000  -0.3750000  -0.5000000), wk =   0.0039062
        k(  110) = (   0.1250000  -0.3750000  -0.3750000), wk =   0.0039062
        k(  111) = (   0.1250000  -0.3750000  -0.2500000), wk =   0.0039062
        k(  112) = (   0.1250000  -0.3750000  -0.1250000), wk =   0.0039062
        k(  113) = (   0.1250000  -0.2500000  -0.0000000), wk =   0.0039062
        k(  114) = (   0.1250000  -0.2500000   0.1250000), wk =   0.0039062
        k(  115) = (   0.1250000  -0.2500000   0.2500000), wk =   0.0039062
        k(  116) = (   0.1250000  -0.2500000   0.3750000), wk =   0.0039062
        k(  117) = (   0.1250000  -0.2500000  -0.5000000), wk =   0.0039062
        k(  118) = (   0.1250000  -0.2500000  -0.3750000), wk =   0.0039062
        k(  119) = (   0.1250000  -0.2500000  -0.2500000), wk =   0.0039062
        k(  120) = (   0.1250000  -0.2500000  -0.1250000), wk =   0.0039062
        k(  121) = (   0.1250000  -0.1250000   0.0000000), wk =   0.0039062
        k(  122) = (   0.1250000  -0.1250000   0.1250000), wk =   0.0039062
        k(  123) = (   0.1250000  -0.1250000   0.2500000), wk =   0.0039062
        k(  124) = (   0.1250000  -0.1250000   0.3750000), wk =   0.0039062
        k(  125) = (   0.1250000  -0.1250000  -0.5000000), wk =   0.0039062
        k(  126) = (   0.1250000  -0.1250000  -0.3750000), wk =   0.0039062
        k(  127) = (   0.1250000  -0.1250000  -0.2500000), wk =   0.0039062
        k(  128) = (   0.1250000  -0.1250000  -0.1250000), wk =   0.0039062
        k(  129) = (   0.2500000   0.0000000  -0.0000000), wk =   0.0039062
        k(  130) = (   0.2500000  -0.0000000   0.1250000), wk =   0.0039062
        k(  131) = (   0.2500000  -0.0000000   0.2500000), wk =   0.0039062
        k(  132) = (   0.2500000  -0.0000000   0.3750000), wk =   0.0039062
        k(  133) = (   0.2500000  -0.0000000  -0.5000000), wk =   0.0039062
        k(  134) = (   0.2500000   0.0000000  -0.3750000), wk =   0.0039062
        k(  135) = (   0.2500000  -0.0000000  -0.2500000), wk =   0.0039062
        k(  136) = (   0.2500000   0.0000000  -0.1250000), wk =   0.0039062
        k(  137) = (   0.2500000   0.1250000   0.0000000), wk =   0.0039062
        k(  138) = (   0.2500000   0.1250000   0.1250000), wk =   0.0039062
        k(  139) = (   0.2500000   0.1250000   0.2500000), wk =   0.0039062
        k(  140) = (   0.2500000   0.1250000   0.3750000), wk =   0.0039062
        k(  141) = (   0.2500000   0.1250000  -0.5000000), wk =   0.0039062
        k(  142) = (   0.2500000   0.1250000  -0.3750000), wk =   0.0039062
        k(  143) = (   0.2500000   0.1250000  -0.2500000), wk =   0.0039062
        k(  144) = (   0.2500000   0.1250000  -0.1250000), wk =   0.0039062
        k(  145) = (   0.2500000   0.2500000   0.0000000), wk =   0.0039062
        k(  146) = (   0.2500000   0.2500000   0.1250000), wk =   0.0039062
        k(  147) = (   0.2500000   0.2500000   0.2500000), wk =   0.0039062
        k(  148) = (   0.2500000   0.2500000   0.3750000), wk =   0.0039062
        k(  149) = (   0.2500000   0.2500000  -0.5000000), wk =   0.0039062
        k(  150) = (   0.2500000   0.2500000  -0.3750000), wk =   0.0039062
        k(  151) = (   0.2500000   0.2500000  -0.2500000), wk =   0.0039062
        k(  152) = (   0.2500000   0.2500000  -0.1250000), wk =   0.0039062
        k(  153) = (   0.2500000   0.3750000   0.0000000), wk =   0.0039062
        k(  154) = (   0.2500000   0.3750000   0.1250000), wk =   0.0039062
        k(  155) = (   0.2500000   0.3750000   0.2500000), wk =   0.0039062
        k(  156) = (   0.2500000   0.3750000   0.3750000), wk =   0.0039062
        k(  157) = (   0.2500000   0.3750000  -0.5000000), wk =   0.0039062
        k(  158) = (   0.2500000   0.3750000  -0.3750000), wk =   0.0039062
        k(  159) = (   0.2500000   0.3750000  -0.2500000), wk =   0.0039062
        k(  160) = (   0.2500000   0.3750000  -0.1250000), wk =   0.0039062
        k(  161) = (   0.2500000  -0.5000000  -0.0000000), wk =   0.0039062
        k(  162) = (   0.2500000  -0.5000000   0.1250000), wk =   0.0039062
        k(  163) = (   0.2500000  -0.5000000   0.2500000), wk =   0.0039062
        k(  164) = (   0.2500000  -0.5000000   0.3750000), wk =   0.0039062
        k(  165) = (   0.2500000  -0.5000000  -0.5000000), wk =   0.0039062
        k(  166) = (   0.2500000  -0.5000000  -0.3750000), wk =   0.0039062
        k(  167) = (   0.2500000  -0.5000000  -0.2500000), wk =   0.0039062
        k(  168) = (   0.2500000  -0.5000000  -0.1250000), wk =   0.0039062
        k(  169) = (   0.2500000  -0.3750000  -0.0000000), wk =   0.0039062
        k(  170) = (   0.2500000  -0.3750000   0.1250000), wk =   0.0039062
        k(  171) = (   0.2500000  -0.3750000   0.2500000), wk =   0.0039062
        k(  172) = (   0.2500000  -0.3750000   0.3750000), wk =   0.0039062
        k(  173) = (   0.2500000  -0.3750000  -0.5000000), wk =   0.0039062
        k(  174) = (   0.2500000  -0.3750000  -0.3750000), wk =   0.0039062
        k(  175) = (   0.2500000  -0.3750000  -0.2500000), wk =   0.0039062
        k(  176) = (   0.2500000  -0.3750000  -0.1250000), wk =   0.0039062
        k(  177) = (   0.2500000  -0.2500000   0.0000000), wk =   0.0039062
        k(  178) = (   0.2500000  -0.2500000   0.1250000), wk =   0.0039062
        k(  179) = (   0.2500000  -0.2500000   0.2500000), wk =   0.0039062
        k(  180) = (   0.2500000  -0.2500000   0.3750000), wk =   0.0039062
        k(  181) = (   0.2500000  -0.2500000  -0.5000000), wk =   0.0039062
        k(  182) = (   0.2500000  -0.2500000  -0.3750000), wk =   0.0039062
        k(  183) = (   0.2500000  -0.2500000  -0.2500000), wk =   0.0039062
        k(  184) = (   0.2500000  -0.2500000  -0.1250000), wk =   0.0039062
        k(  185) = (   0.2500000  -0.1250000   0.0000000), wk =   0.0039062
        k(  186) = (   0.2500000  -0.1250000   0.1250000), wk =   0.0039062
        k(  187) = (   0.2500000  -0.1250000   0.2500000), wk =   0.0039062
        k(  188) = (   0.2500000  -0.1250000   0.3750000), wk =   0.0039062
        k(  189) = (   0.2500000  -0.1250000  -0.5000000), wk =   0.0039062
        k(  190) = (   0.2500000  -0.1250000  -0.3750000), wk =   0.0039062
        k(  191) = (   0.2500000  -0.1250000  -0.2500000), wk =   0.0039062
        k(  192) = (   0.2500000  -0.1250000  -0.1250000), wk =   0.0039062
        k(  193) = (   0.3750000  -0.0000000  -0.0000000), wk =   0.0039062
        k(  194) = (   0.3750000  -0.0000000   0.1250000), wk =   0.0039062
        k(  195) = (   0.3750000  -0.0000000   0.2500000), wk =   0.0039062
        k(  196) = (   0.3750000   0.0000000   0.3750000), wk =   0.0039062
        k(  197) = (   0.3750000  -0.0000000  -0.5000000), wk =   0.0039062
        k(  198) = (   0.3750000  -0.0000000  -0.3750000), wk =   0.0039062
        k(  199) = (   0.3750000  -0.0000000  -0.2500000), wk =   0.0039062
        k(  200) = (   0.3750000   0.0000000  -0.1250000), wk =   0.0039062
        k(  201) = (   0.3750000   0.1250000  -0.0000000), wk =   0.0039062
        k(  202) = (   0.3750000   0.1250000   0.1250000), wk =   0.0039062
        k(  203) = (   0.3750000   0.1250000   0.2500000), wk =   0.0039062
        k(  204) = (   0.3750000   0.1250000   0.3750000), wk =   0.0039062
        k(  205) = (   0.3750000   0.1250000  -0.5000000), wk =   0.0039062
        k(  206) = (   0.3750000   0.1250000  -0.3750000), wk =   0.0039062
        k(  207) = (   0.3750000   0.1250000  -0.2500000), wk =   0.0039062
        k(  208) = (   0.3750000   0.1250000  -0.1250000), wk =   0.0039062
        k(  209) = (   0.3750000   0.2500000  -0.0000000), wk =   0.0039062
        k(  210) = (   0.3750000   0.2500000   0.1250000), wk =   0.0039062
        k(  211) = (   0.3750000   0.2500000   0.2500000), wk =   0.0039062
        k(  212) = (   0.3750000   0.2500000   0.3750000), wk =   0.0039062
        k(  213) = (   0.3750000   0.2500000  -0.5000000), wk =   0.0039062
        k(  214) = (   0.3750000   0.2500000  -0.3750000), wk =   0.0039062
        k(  215) = (   0.3750000   0.2500000  -0.2500000), wk =   0.0039062
        k(  216) = (   0.3750000   0.2500000  -0.1250000), wk =   0.0039062
        k(  217) = (   0.3750000   0.3750000  -0.0000000), wk =   0.0039062
        k(  218) = (   0.3750000   0.3750000   0.1250000), wk =   0.0039062
        k(  219) = (   0.3750000   0.3750000   0.2500000), wk =   0.0039062
        k(  220) = (   0.3750000   0.3750000   0.3750000), wk =   0.0039062
        k(  221) = (   0.3750000   0.3750000  -0.5000000), wk =   0.0039062
        k(  222) = (   0.3750000   0.3750000  -0.3750000), wk =   0.0039062
        k(  223) = (   0.3750000   0.3750000  -0.2500000), wk =   0.0039062
        k(  224) = (   0.3750000   0.3750000  -0.1250000), wk =   0.0039062
        k(  225) = (   0.3750000  -0.5000000  -0.0000000), wk =   0.0039062
        k(  226) = (   0.3750000  -0.5000000   0.1250000), wk =   0.0039062
        k(  227) = (   0.3750000  -0.5000000   0.2500000), wk =   0.0039062
        k(  228) = (   0.3750000  -0.5000000   0.3750000), wk =   0.0039062
        k(  229) = (   0.3750000  -0.5000000  -0.5000000), wk =   0.0039062
        k(  230) = (   0.3750000  -0.5000000  -0.3750000), wk =   0.0039062
        k(  231) = (   0.3750000  -0.5000000  -0.2500000), wk =   0.0039062
        k(  232) = (   0.3750000  -0.5000000  -0.1250000), wk =   0.0039062
        k(  233) = (   0.3750000  -0.3750000  -0.0000000), wk =   0.0039062
        k(  234) = (   0.3750000  -0.3750000   0.1250000), wk =   0.0039062
        k(  235) = (   0.3750000  -0.3750000   0.2500000), wk =   0.0039062
        k(  236) = (   0.3750000  -0.3750000   0.3750000), wk =   0.0039062
        k(  237) = (   0.3750000  -0.3750000  -0.5000000), wk =   0.0039062
        k(  238) = (   0.3750000  -0.3750000  -0.3750000), wk =   0.0039062
        k(  239) = (   0.3750000  -0.3750000  -0.2500000), wk =   0.0039062
        k(  240) = (   0.3750000  -0.3750000  -0.1250000), wk =   0.0039062
        k(  241) = (   0.3750000  -0.2500000  -0.0000000), wk =   0.0039062
        k(  242) = (   0.3750000  -0.2500000   0.1250000), wk =   0.0039062
        k(  243) = (   0.3750000  -0.2500000   0.2500000), wk =   0.0039062
        k(  244) = (   0.3750000  -0.2500000   0.3750000), wk =   0.0039062
        k(  245) = (   0.3750000  -0.2500000  -0.5000000), wk =   0.0039062
        k(  246) = (   0.3750000  -0.2500000  -0.3750000), wk =   0.0039062
        k(  247) = (   0.3750000  -0.2500000  -0.2500000), wk =   0.0039062
        k(  248) = (   0.3750000  -0.2500000  -0.1250000), wk =   0.0039062
        k(  249) = (   0.3750000  -0.1250000  -0.0000000), wk =   0.0039062
        k(  250) = (   0.3750000  -0.1250000   0.1250000), wk =   0.0039062
        k(  251) = (   0.3750000  -0.1250000   0.2500000), wk =   0.0039062
        k(  252) = (   0.3750000  -0.1250000   0.3750000), wk =   0.0039062
        k(  253) = (   0.3750000  -0.1250000  -0.5000000), wk =   0.0039062
        k(  254) = (   0.3750000  -0.1250000  -0.3750000), wk =   0.0039062
        k(  255) = (   0.3750000  -0.1250000  -0.2500000), wk =   0.0039062
        k(  256) = (   0.3750000  -0.1250000  -0.1250000), wk =   0.0039062
        k(  257) = (  -0.5000000  -0.0000000   0.0000000), wk =   0.0039062
        k(  258) = (  -0.5000000  -0.0000000   0.1250000), wk =   0.0039062
        k(  259) = (  -0.5000000  -0.0000000   0.2500000), wk =   0.0039062
        k(  260) = (  -0.5000000   0.0000000   0.3750000), wk =   0.0039062
        k(  261) = (  -0.5000000   0.0000000  -0.5000000), wk =   0.0039062
        k(  262) = (  -0.5000000  -0.0000000  -0.3750000), wk =   0.0039062
        k(  263) = (  -0.5000000   0.0000000  -0.2500000), wk =   0.0039062
        k(  264) = (  -0.5000000   0.0000000  -0.1250000), wk =   0.0039062
        k(  265) = (  -0.5000000   0.1250000   0.0000000), wk =   0.0039062
        k(  266) = (  -0.5000000   0.1250000   0.1250000), wk =   0.0039062
        k(  267) = (  -0.5000000   0.1250000   0.2500000), wk =   0.0039062
        k(  268) = (  -0.5000000   0.1250000   0.3750000), wk =   0.0039062
        k(  269) = (  -0.5000000   0.1250000  -0.5000000), wk =   0.0039062
        k(  270) = (  -0.5000000   0.1250000  -0.3750000), wk =   0.0039062
        k(  271) = (  -0.5000000   0.1250000  -0.2500000), wk =   0.0039062
        k(  272) = (  -0.5000000   0.1250000  -0.1250000), wk =   0.0039062
        k(  273) = (  -0.5000000   0.2500000   0.0000000), wk =   0.0039062
        k(  274) = (  -0.5000000   0.2500000   0.1250000), wk =   0.0039062
        k(  275) = (  -0.5000000   0.2500000   0.2500000), wk =   0.0039062
        k(  276) = (  -0.5000000   0.2500000   0.3750000), wk =   0.0039062
        k(  277) = (  -0.5000000   0.2500000  -0.5000000), wk =   0.0039062
        k(  278) = (  -0.5000000   0.2500000  -0.3750000), wk =   0.0039062
        k(  279) = (  -0.5000000   0.2500000  -0.2500000), wk =   0.0039062
        k(  280) = (  -0.5000000   0.2500000  -0.1250000), wk =   0.0039062
        k(  281) = (  -0.5000000   0.3750000   0.0000000), wk =   0.0039062
        k(  282) = (  -0.5000000   0.3750000   0.1250000), wk =   0.0039062
        k(  283) = (  -0.5000000   0.3750000   0.2500000), wk =   0.0039062
        k(  284) = (  -0.5000000   0.3750000   0.3750000), wk =   0.0039062
        k(  285) = (  -0.5000000   0.3750000  -0.5000000), wk =   0.0039062
        k(  286) = (  -0.5000000   0.3750000  -0.3750000), wk =   0.0039062
        k(  287) = (  -0.5000000   0.3750000  -0.2500000), wk =   0.0039062
        k(  288) = (  -0.5000000   0.3750000  -0.1250000), wk =   0.0039062
        k(  289) = (  -0.5000000  -0.5000000   0.0000000), wk =   0.0039062
        k(  290) = (  -0.5000000  -0.5000000   0.1250000), wk =   0.0039062
        k(  291) = (  -0.5000000  -0.5000000   0.2500000), wk =   0.0039062
        k(  292) = (  -0.5000000  -0.5000000   0.3750000), wk =   0.0039062
        k(  293) = (  -0.5000000  -0.5000000  -0.5000000), wk =   0.0039062
        k(  294) = (  -0.5000000  -0.5000000  -0.3750000), wk =   0.0039062
        k(  295) = (  -0.5000000  -0.5000000  -0.2500000), wk =   0.0039062
        k(  296) = (  -0.5000000  -0.5000000  -0.1250000), wk =   0.0039062
        k(  297) = (  -0.5000000  -0.3750000   0.0000000), wk =   0.0039062
        k(  298) = (  -0.5000000  -0.3750000   0.1250000), wk =   0.0039062
        k(  299) = (  -0.5000000  -0.3750000   0.2500000), wk =   0.0039062
        k(  300) = (  -0.5000000  -0.3750000   0.3750000), wk =   0.0039062
        k(  301) = (  -0.5000000  -0.3750000  -0.5000000), wk =   0.0039062
        k(  302) = (  -0.5000000  -0.3750000  -0.3750000), wk =   0.0039062
        k(  303) = (  -0.5000000  -0.3750000  -0.2500000), wk =   0.0039062
        k(  304) = (  -0.5000000  -0.3750000  -0.1250000), wk =   0.0039062
        k(  305) = (  -0.5000000  -0.2500000   0.0000000), wk =   0.0039062
        k(  306) = (  -0.5000000  -0.2500000   0.1250000), wk =   0.0039062
        k(  307) = (  -0.5000000  -0.2500000   0.2500000), wk =   0.0039062
        k(  308) = (  -0.5000000  -0.2500000   0.3750000), wk =   0.0039062
        k(  309) = (  -0.5000000  -0.2500000  -0.5000000), wk =   0.0039062
        k(  310) = (  -0.5000000  -0.2500000  -0.3750000), wk =   0.0039062
        k(  311) = (  -0.5000000  -0.2500000  -0.2500000), wk =   0.0039062
        k(  312) = (  -0.5000000  -0.2500000  -0.1250000), wk =   0.0039062
        k(  313) = (  -0.5000000  -0.1250000   0.0000000), wk =   0.0039062
        k(  314) = (  -0.5000000  -0.1250000   0.1250000), wk =   0.0039062
        k(  315) = (  -0.5000000  -0.1250000   0.2500000), wk =   0.0039062
        k(  316) = (  -0.5000000  -0.1250000   0.3750000), wk =   0.0039062
        k(  317) = (  -0.5000000  -0.1250000  -0.5000000), wk =   0.0039062
        k(  318) = (  -0.5000000  -0.1250000  -0.3750000), wk =   0.0039062
        k(  319) = (  -0.5000000  -0.1250000  -0.2500000), wk =   0.0039062
        k(  320) = (  -0.5000000  -0.1250000  -0.1250000), wk =   0.0039062
        k(  321) = (  -0.3750000   0.0000000   0.0000000), wk =   0.0039062
        k(  322) = (  -0.3750000  -0.0000000   0.1250000), wk =   0.0039062
        k(  323) = (  -0.3750000   0.0000000   0.2500000), wk =   0.0039062
        k(  324) = (  -0.3750000   0.0000000   0.3750000), wk =   0.0039062
        k(  325) = (  -0.3750000   0.0000000  -0.5000000), wk =   0.0039062
        k(  326) = (  -0.3750000  -0.0000000  -0.3750000), wk =   0.0039062
        k(  327) = (  -0.3750000   0.0000000  -0.2500000), wk =   0.0039062
        k(  328) = (  -0.3750000   0.0000000  -0.1250000), wk =   0.0039062
        k(  329) = (  -0.3750000   0.1250000   0.0000000), wk =   0.0039062
        k(  330) = (  -0.3750000   0.1250000   0.1250000), wk =   0.0039062
        k(  331) = (  -0.3750000   0.1250000   0.2500000), wk =   0.0039062
        k(  332) = (  -0.3750000   0.1250000   0.3750000), wk =   0.0039062
        k(  333) = (  -0.3750000   0.1250000  -0.5000000), wk =   0.0039062
        k(  334) = (  -0.3750000   0.1250000  -0.3750000), wk =   0.0039062
        k(  335) = (  -0.3750000   0.1250000  -0.2500000), wk =   0.0039062
        k(  336) = (  -0.3750000   0.1250000  -0.1250000), wk =   0.0039062
        k(  337) = (  -0.3750000   0.2500000   0.0000000), wk =   0.0039062
        k(  338) = (  -0.3750000   0.2500000   0.1250000), wk =   0.0039062
        k(  339) = (  -0.3750000   0.2500000   0.2500000), wk =   0.0039062
        k(  340) = (  -0.3750000   0.2500000   0.3750000), wk =   0.0039062
        k(  341) = (  -0.3750000   0.2500000  -0.5000000), wk =   0.0039062
        k(  342) = (  -0.3750000   0.2500000  -0.3750000), wk =   0.0039062
        k(  343) = (  -0.3750000   0.2500000  -0.2500000), wk =   0.0039062
        k(  344) = (  -0.3750000   0.2500000  -0.1250000), wk =   0.0039062
        k(  345) = (  -0.3750000   0.3750000   0.0000000), wk =   0.0039062
        k(  346) = (  -0.3750000   0.3750000   0.1250000), wk =   0.0039062
        k(  347) = (  -0.3750000   0.3750000   0.2500000), wk =   0.0039062
        k(  348) = (  -0.3750000   0.3750000   0.3750000), wk =   0.0039062
        k(  349) = (  -0.3750000   0.3750000  -0.5000000), wk =   0.0039062
        k(  350) = (  -0.3750000   0.3750000  -0.3750000), wk =   0.0039062
        k(  351) = (  -0.3750000   0.3750000  -0.2500000), wk =   0.0039062
        k(  352) = (  -0.3750000   0.3750000  -0.1250000), wk =   0.0039062
        k(  353) = (  -0.3750000  -0.5000000   0.0000000), wk =   0.0039062
        k(  354) = (  -0.3750000  -0.5000000   0.1250000), wk =   0.0039062
        k(  355) = (  -0.3750000  -0.5000000   0.2500000), wk =   0.0039062
        k(  356) = (  -0.3750000  -0.5000000   0.3750000), wk =   0.0039062
        k(  357) = (  -0.3750000  -0.5000000  -0.5000000), wk =   0.0039062
        k(  358) = (  -0.3750000  -0.5000000  -0.3750000), wk =   0.0039062
        k(  359) = (  -0.3750000  -0.5000000  -0.2500000), wk =   0.0039062
        k(  360) = (  -0.3750000  -0.5000000  -0.1250000), wk =   0.0039062
        k(  361) = (  -0.3750000  -0.3750000   0.0000000), wk =   0.0039062
        k(  362) = (  -0.3750000  -0.3750000   0.1250000), wk =   0.0039062
        k(  363) = (  -0.3750000  -0.3750000   0.2500000), wk =   0.0039062
        k(  364) = (  -0.3750000  -0.3750000   0.3750000), wk =   0.0039062
        k(  365) = (  -0.3750000  -0.3750000  -0.5000000), wk =   0.0039062
        k(  366) = (  -0.3750000  -0.3750000  -0.3750000), wk =   0.0039062
        k(  367) = (  -0.3750000  -0.3750000  -0.2500000), wk =   0.0039062
        k(  368) = (  -0.3750000  -0.3750000  -0.1250000), wk =   0.0039062
        k(  369) = (  -0.3750000  -0.2500000   0.0000000), wk =   0.0039062
        k(  370) = (  -0.3750000  -0.2500000   0.1250000), wk =   0.0039062
        k(  371) = (  -0.3750000  -0.2500000   0.2500000), wk =   0.0039062
        k(  372) = (  -0.3750000  -0.2500000   0.3750000), wk =   0.0039062
        k(  373) = (  -0.3750000  -0.2500000  -0.5000000), wk =   0.0039062
        k(  374) = (  -0.3750000  -0.2500000  -0.3750000), wk =   0.0039062
        k(  375) = (  -0.3750000  -0.2500000  -0.2500000), wk =   0.0039062
        k(  376) = (  -0.3750000  -0.2500000  -0.1250000), wk =   0.0039062
        k(  377) = (  -0.3750000  -0.1250000   0.0000000), wk =   0.0039062
        k(  378) = (  -0.3750000  -0.1250000   0.1250000), wk =   0.0039062
        k(  379) = (  -0.3750000  -0.1250000   0.2500000), wk =   0.0039062
        k(  380) = (  -0.3750000  -0.1250000   0.3750000), wk =   0.0039062
        k(  381) = (  -0.3750000  -0.1250000  -0.5000000), wk =   0.0039062
        k(  382) = (  -0.3750000  -0.1250000  -0.3750000), wk =   0.0039062
        k(  383) = (  -0.3750000  -0.1250000  -0.2500000), wk =   0.0039062
        k(  384) = (  -0.3750000  -0.1250000  -0.1250000), wk =   0.0039062
        k(  385) = (  -0.2500000  -0.0000000   0.0000000), wk =   0.0039062
        k(  386) = (  -0.2500000  -0.0000000   0.1250000), wk =   0.0039062
        k(  387) = (  -0.2500000   0.0000000   0.2500000), wk =   0.0039062
        k(  388) = (  -0.2500000  -0.0000000   0.3750000), wk =   0.0039062
        k(  389) = (  -0.2500000   0.0000000  -0.5000000), wk =   0.0039062
        k(  390) = (  -0.2500000   0.0000000  -0.3750000), wk =   0.0039062
        k(  391) = (  -0.2500000   0.0000000  -0.2500000), wk =   0.0039062
        k(  392) = (  -0.2500000   0.0000000  -0.1250000), wk =   0.0039062
        k(  393) = (  -0.2500000   0.1250000   0.0000000), wk =   0.0039062
        k(  394) = (  -0.2500000   0.1250000   0.1250000), wk =   0.0039062
        k(  395) = (  -0.2500000   0.1250000   0.2500000), wk =   0.0039062
        k(  396) = (  -0.2500000   0.1250000   0.3750000), wk =   0.0039062
        k(  397) = (  -0.2500000   0.1250000  -0.5000000), wk =   0.0039062
        k(  398) = (  -0.2500000   0.1250000  -0.3750000), wk =   0.0039062
        k(  399) = (  -0.2500000   0.1250000  -0.2500000), wk =   0.0039062
        k(  400) = (  -0.2500000   0.1250000  -0.1250000), wk =   0.0039062
        k(  401) = (  -0.2500000   0.2500000   0.0000000), wk =   0.0039062
        k(  402) = (  -0.2500000   0.2500000   0.1250000), wk =   0.0039062
        k(  403) = (  -0.2500000   0.2500000   0.2500000), wk =   0.0039062
        k(  404) = (  -0.2500000   0.2500000   0.3750000), wk =   0.0039062
        k(  405) = (  -0.2500000   0.2500000  -0.5000000), wk =   0.0039062
        k(  406) = (  -0.2500000   0.2500000  -0.3750000), wk =   0.0039062
        k(  407) = (  -0.2500000   0.2500000  -0.2500000), wk =   0.0039062
        k(  408) = (  -0.2500000   0.2500000  -0.1250000), wk =   0.0039062
        k(  409) = (  -0.2500000   0.3750000   0.0000000), wk =   0.0039062
        k(  410) = (  -0.2500000   0.3750000   0.1250000), wk =   0.0039062
        k(  411) = (  -0.2500000   0.3750000   0.2500000), wk =   0.0039062
        k(  412) = (  -0.2500000   0.3750000   0.3750000), wk =   0.0039062
        k(  413) = (  -0.2500000   0.3750000  -0.5000000), wk =   0.0039062
        k(  414) = (  -0.2500000   0.3750000  -0.3750000), wk =   0.0039062
        k(  415) = (  -0.2500000   0.3750000  -0.2500000), wk =   0.0039062
        k(  416) = (  -0.2500000   0.3750000  -0.1250000), wk =   0.0039062
        k(  417) = (  -0.2500000  -0.5000000   0.0000000), wk =   0.0039062
        k(  418) = (  -0.2500000  -0.5000000   0.1250000), wk =   0.0039062
        k(  419) = (  -0.2500000  -0.5000000   0.2500000), wk =   0.0039062
        k(  420) = (  -0.2500000  -0.5000000   0.3750000), wk =   0.0039062
        k(  421) = (  -0.2500000  -0.5000000  -0.5000000), wk =   0.0039062
        k(  422) = (  -0.2500000  -0.5000000  -0.3750000), wk =   0.0039062
        k(  423) = (  -0.2500000  -0.5000000  -0.2500000), wk =   0.0039062
        k(  424) = (  -0.2500000  -0.5000000  -0.1250000), wk =   0.0039062
        k(  425) = (  -0.2500000  -0.3750000   0.0000000), wk =   0.0039062
        k(  426) = (  -0.2500000  -0.3750000   0.1250000), wk =   0.0039062
        k(  427) = (  -0.2500000  -0.3750000   0.2500000), wk =   0.0039062
        k(  428) = (  -0.2500000  -0.3750000   0.3750000), wk =   0.0039062
        k(  429) = (  -0.2500000  -0.3750000  -0.5000000), wk =   0.0039062
        k(  430) = (  -0.2500000  -0.3750000  -0.3750000), wk =   0.0039062
        k(  431) = (  -0.2500000  -0.3750000  -0.2500000), wk =   0.0039062
        k(  432) = (  -0.2500000  -0.3750000  -0.1250000), wk =   0.0039062
        k(  433) = (  -0.2500000  -0.2500000   0.0000000), wk =   0.0039062
        k(  434) = (  -0.2500000  -0.2500000   0.1250000), wk =   0.0039062
        k(  435) = (  -0.2500000  -0.2500000   0.2500000), wk =   0.0039062
        k(  436) = (  -0.2500000  -0.2500000   0.3750000), wk =   0.0039062
        k(  437) = (  -0.2500000  -0.2500000  -0.5000000), wk =   0.0039062
        k(  438) = (  -0.2500000  -0.2500000  -0.3750000), wk =   0.0039062
        k(  439) = (  -0.2500000  -0.2500000  -0.2500000), wk =   0.0039062
        k(  440) = (  -0.2500000  -0.2500000  -0.1250000), wk =   0.0039062
        k(  441) = (  -0.2500000  -0.1250000   0.0000000), wk =   0.0039062
        k(  442) = (  -0.2500000  -0.1250000   0.1250000), wk =   0.0039062
        k(  443) = (  -0.2500000  -0.1250000   0.2500000), wk =   0.0039062
        k(  444) = (  -0.2500000  -0.1250000   0.3750000), wk =   0.0039062
        k(  445) = (  -0.2500000  -0.1250000  -0.5000000), wk =   0.0039062
        k(  446) = (  -0.2500000  -0.1250000  -0.3750000), wk =   0.0039062
        k(  447) = (  -0.2500000  -0.1250000  -0.2500000), wk =   0.0039062
        k(  448) = (  -0.2500000  -0.1250000  -0.1250000), wk =   0.0039062
        k(  449) = (  -0.1250000  -0.0000000   0.0000000), wk =   0.0039062
        k(  450) = (  -0.1250000   0.0000000   0.1250000), wk =   0.0039062
        k(  451) = (  -0.1250000   0.0000000   0.2500000), wk =   0.0039062
        k(  452) = (  -0.1250000   0.0000000   0.3750000), wk =   0.0039062
        k(  453) = (  -0.1250000   0.0000000  -0.5000000), wk =   0.0039062
        k(  454) = (  -0.1250000   0.0000000  -0.3750000), wk =   0.0039062
        k(  455) = (  -0.1250000   0.0000000  -0.2500000), wk =   0.0039062
        k(  456) = (  -0.1250000   0.0000000  -0.1250000), wk =   0.0039062
        k(  457) = (  -0.1250000   0.1250000   0.0000000), wk =   0.0039062
        k(  458) = (  -0.1250000   0.1250000   0.1250000), wk =   0.0039062
        k(  459) = (  -0.1250000   0.1250000   0.2500000), wk =   0.0039062
        k(  460) = (  -0.1250000   0.1250000   0.3750000), wk =   0.0039062
        k(  461) = (  -0.1250000   0.1250000  -0.5000000), wk =   0.0039062
        k(  462) = (  -0.1250000   0.1250000  -0.3750000), wk =   0.0039062
        k(  463) = (  -0.1250000   0.1250000  -0.2500000), wk =   0.0039062
        k(  464) = (  -0.1250000   0.1250000  -0.1250000), wk =   0.0039062
        k(  465) = (  -0.1250000   0.2500000   0.0000000), wk =   0.0039062
        k(  466) = (  -0.1250000   0.2500000   0.1250000), wk =   0.0039062
        k(  467) = (  -0.1250000   0.2500000   0.2500000), wk =   0.0039062
        k(  468) = (  -0.1250000   0.2500000   0.3750000), wk =   0.0039062
        k(  469) = (  -0.1250000   0.2500000  -0.5000000), wk =   0.0039062
        k(  470) = (  -0.1250000   0.2500000  -0.3750000), wk =   0.0039062
        k(  471) = (  -0.1250000   0.2500000  -0.2500000), wk =   0.0039062
        k(  472) = (  -0.1250000   0.2500000  -0.1250000), wk =   0.0039062
        k(  473) = (  -0.1250000   0.3750000   0.0000000), wk =   0.0039062
        k(  474) = (  -0.1250000   0.3750000   0.1250000), wk =   0.0039062
        k(  475) = (  -0.1250000   0.3750000   0.2500000), wk =   0.0039062
        k(  476) = (  -0.1250000   0.3750000   0.3750000), wk =   0.0039062
        k(  477) = (  -0.1250000   0.3750000  -0.5000000), wk =   0.0039062
        k(  478) = (  -0.1250000   0.3750000  -0.3750000), wk =   0.0039062
        k(  479) = (  -0.1250000   0.3750000  -0.2500000), wk =   0.0039062
        k(  480) = (  -0.1250000   0.3750000  -0.1250000), wk =   0.0039062
        k(  481) = (  -0.1250000  -0.5000000   0.0000000), wk =   0.0039062
        k(  482) = (  -0.1250000  -0.5000000   0.1250000), wk =   0.0039062
        k(  483) = (  -0.1250000  -0.5000000   0.2500000), wk =   0.0039062
        k(  484) = (  -0.1250000  -0.5000000   0.3750000), wk =   0.0039062
        k(  485) = (  -0.1250000  -0.5000000  -0.5000000), wk =   0.0039062
[...]

     0.3806   4.3866  12.1407  14.0823

     occupation numbers 
     1.0000   1.0000   0.0000   0.0000

          k =-0.2422-0.3063 0.2016 (   452 PWs)   bands (ev):

     1.0411   3.0096  13.3472  14.4187

     occupation numbers 
     1.0000   1.0000   0.0000   0.0000

          k =-0.2336-0.2627-0.3253 (   452 PWs)   bands (ev):

     1.8517   1.9704  13.8713  14.1256

     occupation numbers 
     1.0000   1.0000   0.0000   0.0000

          k =-0.2348-0.2690-0.2500 (   454 PWs)   bands (ev):

     0.9694   3.1231  13.0514  14.5455

     occupation numbers 
     1.0000   1.0000   0.0000   0.0000

          k =-0.2360-0.2752-0.1748 (   456 PWs)   bands (ev):

     0.3323   4.5164  11.8793  14.1320

     occupation numbers 
     1.0000   1.0000   0.0000   0.0000

          k =-0.2373-0.2814-0.0995 (   454 PWs)   bands (ev):

    -0.0458   6.0653  10.2320  13.6046

     occupation numbers 
     1.0000   1.0000   0.0000   0.0000

          k =-0.1221-0.0719-0.0090 (   452 PWs)   bands (ev):

    -2.8439   3.7114   8.5067  20.9260

     occupation numbers 
     1.0000   1.0000   0.2472   0.0000

          k =-0.1234-0.0781 0.0663 (   457 PWs)   bands (ev):

    -2.7200   2.9969   9.5015  21.0086

     occupation numbers 
     1.0000   1.0000   0.0000   0.0000

          k =-0.1246-0.0844 0.1416 (   458 PWs)   bands (ev):

    -2.3406   1.6487  11.6834  21.0451

     occupation numbers 
     1.0000   1.0000   0.0000   0.0000

          k =-0.1258-0.0906 0.2168 (   460 PWs)   bands (ev):

    -1.7079   0.3289  14.3581  19.9664

     occupation numbers 
     1.0000   1.0000   0.0000   0.0000

          k =-0.1172-0.0470-0.3100 (   462 PWs)   bands (ev):

    -0.8439  -0.7775  17.1910  17.3717

     occupation numbers 
     1.0000   1.0000   0.0000   0.0000

          k =-0.1184-0.0532-0.2347 (   461 PWs)   bands (ev):

    -1.6887   0.2999  14.4127  19.9071

     occupation numbers 
     1.0000   1.0000   0.0000   0.0000

          k =-0.1197-0.0595-0.1595 (   456 PWs)   bands (ev):

    -2.3278   1.6175  11.7330  20.9775

     occupation numbers 
     1.0000   1.0000   0.0000   0.0000

          k =-0.1209-0.0657-0.0842 (   450 PWs)   bands (ev):

    -2.7132   2.9700   9.5366  20.9657

     occupation numbers 
     1.0000   1.0000   0.0000   0.0000

          k =-0.1279 0.0719-0.0026 (   461 PWs)   bands (ev):

    -2.8165   3.7554   8.4904  22.3925

     occupation numbers 
     1.0000   1.0000   0.3827   0.0000

          k =-0.1291 0.0657 0.0726 (   459 PWs)   bands (ev):

    -2.7112   3.1132   9.3871  22.6263

     occupation numbers 
     1.0000   1.0000   0.0000   0.0000

          k =-0.1303 0.0594 0.1479 (   459 PWs)   bands (ev):

    -2.3512   1.7675  11.5569  23.0662

     occupation numbers 
     1.0000   1.0000   0.0000   0.0000

          k =-0.1316 0.0532 0.2232 (   461 PWs)   bands (ev):

    -1.7368   0.4358  14.2592  20.9181

     occupation numbers 
     1.0000   1.0000   0.0000   0.0000

          k =-0.1230 0.0968-0.3037 (   463 PWs)   bands (ev):

    -0.8753  -0.7003  17.2473  17.7385

     occupation numbers 
     1.0000   1.0000   0.0000   0.0000

          k =-0.1242 0.0905-0.2284 (   464 PWs)   bands (ev):

    -1.6107   0.2393  14.6769  20.3778

     occupation numbers 
     1.0000   1.0000   0.0000   0.0000

          k =-0.1254 0.0843-0.1531 (   466 PWs)   bands (ev):

    -2.2657   1.5518  11.9179  22.7376

     occupation numbers 
     1.0000   1.0000   0.0000   0.0000

          k =-0.1267 0.0781-0.0779 (   458 PWs)   bands (ev):

    -2.6680   2.9247   9.6472  22.4475

     occupation numbers 
     1.0000   1.0000   0.0000   0.0000

          k =-0.1336 0.2157 0.0037 (   461 PWs)   bands (ev):

    -1.8653   4.9922   8.7665  18.5977

     occupation numbers 
     1.0000   1.0000   0.0000   0.0000

          k =-0.1349 0.2094 0.0790 (   459 PWs)   bands (ev):

    -1.7787   4.3285   9.6581  18.8367

     occupation numbers 
     1.0000   1.0000   0.0000   0.0000

          k =-0.1361 0.2032 0.1542 (   455 PWs)   bands (ev):

    -1.4364   2.8863  11.8790  19.2835

     occupation numbers 
     1.0000   1.0000   0.0000   0.0000

          k =-0.1373 0.1970 0.2295 (   459 PWs)   bands (ev):

    -0.8375   1.5019  14.5424  19.6495

     occupation numbers 
     1.0000   1.0000   0.0000   0.0000

          k =-0.1287 0.2406-0.2973 (   461 PWs)   bands (ev):

     0.0161   0.3310  17.2909  18.0519

     occupation numbers 
     1.0000   1.0000   0.0000   0.0000

          k =-0.1300 0.2343-0.2221 (   466 PWs)   bands (ev):

    -0.6013   1.1301  15.1998  19.0039

     occupation numbers 
     1.0000   1.0000   0.0000   0.0000

          k =-0.1312 0.2281-0.1468 (   466 PWs)   bands (ev):

    -1.2767   2.4704  12.4961  18.8368

     occupation numbers 
     1.0000   1.0000   0.0000   0.0000

          k =-0.1324 0.2219-0.0716 (   461 PWs)   bands (ev):

    -1.6979   3.9425  10.1473  18.6066

     occupation numbers 
     1.0000   1.0000   0.0000   0.0000

          k =-0.1394 0.3595 0.0100 (   456 PWs)   bands (ev):

     0.0060   7.3482   8.8744  13.9296

     occupation numbers 
     1.0000   1.0000   0.0000   0.0000

          k =-0.1406 0.3532 0.0853 (   460 PWs)   bands (ev):

     0.0715   6.4548   9.9491  14.1394

     occupation numbers 
     1.0000   1.0000   0.0000   0.0000

          k =-0.1419 0.3470 0.1606 (   461 PWs)   bands (ev):

     0.3905   4.8551  11.9370  14.7239

     occupation numbers 
     1.0000   1.0000   0.0000   0.0000

          k =-0.1431 0.3408 0.2358 (   453 PWs)   bands (ev):

     0.9632   3.4346  13.6438  15.0052

     occupation numbers 
     1.0000   1.0000   0.0000   0.0000

          k =-0.1345 0.3843-0.2910 (   461 PWs)   bands (ev):

     1.7916   2.2524  14.1905  15.0473

     occupation numbers 
     1.0000   1.0000   0.0000   0.0000

          k =-0.1357 0.3781-0.2158 (   458 PWs)   bands (ev):

     1.3110   2.8863  13.2915  15.8948

     occupation numbers 
     1.0000   1.0000   0.0000   0.0000

          k =-0.1369 0.3719-0.1405 (   460 PWs)   bands (ev):

     0.6258   4.2319  12.1176  15.0199

     occupation numbers 
     1.0000   1.0000   0.0000   0.0000

          k =-0.1382 0.3657-0.0652 (   459 PWs)   bands (ev):

     0.1901   5.8079  10.4785  14.1657

     occupation numbers 
     1.0000   1.0000   0.0000   0.0000

          k =-0.0991-0.6471-0.0343 (   456 PWs)   bands (ev):

     2.6622   6.5167  10.6686  13.0290

     occupation numbers 
     1.0000   1.0000   0.0000   0.0000

          k =-0.1003-0.6533 0.0410 (   459 PWs)   bands (ev):

     2.7058   6.5104  10.5584  12.9169

     occupation numbers 
     1.0000   1.0000   0.0000   0.0000

          k =-0.1016-0.6595 0.1163 (   462 PWs)   bands (ev):

     2.9729   6.1647  10.1521  11.9986

     occupation numbers 
     1.0000   1.0000   0.0000   0.0000

          k =-0.1028-0.6657 0.1915 (   465 PWs)   bands (ev):

     3.4492   5.4728  10.2424  10.9389

     occupation numbers 
     1.0000   1.0000   0.0000   0.0000

          k =-0.0942-0.6222-0.3353 (   458 PWs)   bands (ev):

     4.0968   4.6571  10.1091  10.8408

     occupation numbers 
     1.0000   1.0000   0.0000   0.0000

          k =-0.0954-0.6284-0.2601 (   459 PWs)   bands (ev):

     3.8562   4.9127   9.6137  11.7799

     occupation numbers 
     1.0000   1.0000   0.0000   0.0000

          k =-0.0966-0.6346-0.1848 (   462 PWs)   bands (ev):

     3.2518   5.6839   9.5324  12.9605

     occupation numbers 
     1.0000   1.0000   0.0000   0.0000

          k =-0.0979-0.6409-0.1095 (   459 PWs)   bands (ev):

     2.8464   6.2508   9.9730  13.7396

     occupation numbers 
     1.0000   1.0000   0.0000   0.0000

          k =-0.1048-0.5033-0.0279 (   455 PWs)   bands (ev):

     2.5107   6.7094  10.3998  13.6391

     occupation numbers 
     1.0000   1.0000   0.0000   0.0000

          k =-0.1061-0.5095 0.0473 (   457 PWs)   bands (ev):

     2.6794   6.4145   9.9176  13.9242

     occupation numbers 
     1.0000   1.0000   0.0000   0.0000

          k =-0.1073-0.5157 0.1226 (   461 PWs)   bands (ev):

     3.0798   5.7791   9.6074  12.8459

     occupation numbers 
     1.0000   1.0000   0.0000   0.0000

          k =-0.1085-0.5220 0.1978 (   463 PWs)   bands (ev):

     3.6922   4.9522   9.6934  11.7853

     occupation numbers 
     1.0000   1.0000   0.0000   0.0000

          k =-0.0999-0.4784-0.3290 (   464 PWs)   bands (ev):

     4.0880   4.5156  10.1222  10.9549

     occupation numbers 
     1.0000   1.0000   0.0000   0.0000

          k =-0.1012-0.4846-0.2537 (   457 PWs)   bands (ev):

     3.4011   5.3715  10.3932  10.8736

     occupation numbers 
     1.0000   1.0000   0.0000   0.0000

          k =-0.1024-0.4908-0.1785 (   455 PWs)   bands (ev):

     2.8822   6.1601  10.2386  11.8636

     occupation numbers 
     1.0000   1.0000   0.0000   0.0000

          k =-0.1036-0.4971-0.1032 (   455 PWs)   bands (ev):

     2.5801   6.6364  10.4212  13.0138

     occupation numbers 
     1.0000   1.0000   0.0000   0.0000

          k =-0.1106-0.3595-0.0216 (   452 PWs)   bands (ev):

    -0.1235   7.1626   9.0221  14.2135

     occupation numbers 
     1.0000   1.0000   0.0000   0.0000

          k =-0.1118-0.3657 0.0536 (   454 PWs)   bands (ev):

     0.0392   5.8409  10.4262  14.3843

     occupation numbers 
     1.0000   1.0000   0.0000   0.0000

          k =-0.1131-0.3719 0.1289 (   455 PWs)   bands (ev):

     0.4589   4.2806  12.1490  14.9752

     occupation numbers 
     1.0000   1.0000   0.0000   0.0000

          k =-0.1143-0.3782 0.2042 (   455 PWs)   bands (ev):

     1.1325   2.9184  13.3992  15.5752

     occupation numbers 
     1.0000   1.0000   0.0000   0.0000

          k =-0.1057-0.3346-0.3227 (   452 PWs)   bands (ev):

     1.7919   2.0676  14.2161  15.0935

     occupation numbers 
     1.0000   1.0000   0.0000   0.0000

          k =-0.1069-0.3408-0.2474 (   451 PWs)   bands (ev):

     0.9311   3.2353  13.9425  14.9270

     occupation numbers 
     1.0000   1.0000   0.0000   0.0000

          k =-0.1081-0.3471-0.1721 (   452 PWs)   bands (ev):

     0.3226   4.6372  12.2108  14.6798

     occupation numbers 
     1.0000   1.0000   0.0000   0.0000

          k =-0.1094-0.3533-0.0969 (   450 PWs)   bands (ev):

    -0.0289   6.1965  10.1930  14.3281

     occupation numbers 
     1.0000   1.0000   0.0000   0.0000

          k =-0.1164-0.2157-0.0153 (   451 PWs)   bands (ev):

    -1.9461   4.8624   8.8447  18.0962

     occupation numbers 
     1.0000   1.0000   0.0000   0.0000

          k =-0.1176-0.2219 0.0600 (   452 PWs)   bands (ev):

    -1.8023   3.9648  10.0281  18.1500

     occupation numbers 
     1.0000   1.0000   0.0000   0.0000

          k =-0.1188-0.2281 0.1352 (   454 PWs)   bands (ev):

    -1.4015   2.5279  12.2679  18.3015

     occupation numbers 
     1.0000   1.0000   0.0000   0.0000

          k =-0.1201-0.2344 0.2105 (   460 PWs)   bands (ev):

    -0.7448   1.1815  14.8425  18.2678

     occupation numbers 
     1.0000   1.0000   0.0000   0.0000

          k =-0.1114-0.1908-0.3163 (   457 PWs)   bands (ev):

     0.0416   0.1758  16.9377  17.3882

     occupation numbers 
     1.0000   1.0000   0.0000   0.0000

          k =-0.1127-0.1970-0.2411 (   456 PWs)   bands (ev):

    -0.8340   1.3225  14.5680  18.4212

     occupation numbers 
     1.0000   1.0000   0.0000   0.0000

          k =-0.1139-0.2033-0.1658 (   455 PWs)   bands (ev):

    -1.4617   2.6854  12.0194  18.3446

     occupation numbers 
     1.0000   1.0000   0.0000   0.0000

          k =-0.1151-0.2095-0.0905 (   453 PWs)   bands (ev):

    -1.8328   4.1089   9.8418  18.1694

     occupation numbers 
     1.0000   1.0000   0.0000   0.0000

     the Fermi energy is     8.4781 ev

!    total energy              =      -5.35861317 Ry
     estimated scf accuracy    <       0.00187400 Ry
     smearing contrib. (-TS)   =      -0.00003826 Ry
     internal energy E=F+TS    =      -5.35857491 Ry

     The total energy is F=E-TS. E is the sum of the following terms:
     one-electron contribution =       4.04875509 Ry
     hartree contribution      =       0.00451536 Ry
     xc contribution           =      -3.29057796 Ry
     ewald contribution        =      -6.12126741 Ry

     convergence has been achieved in   1 iterations

     Forces acting on atoms (cartesian axes, Ry/au):

     atom    1 type  1   force =    -0.03323456    0.01136139   -0.00761182
     atom    2 type  1   force =     0.03323456   -0.01136139    0.00761182
     The non-local contrib.  to forces
     atom    1 type  1   force =    -0.04958292    0.01295649   -0.00629447
     atom    2 type  1   force =     0.04961179   -0.01299872    0.00633210
     The ionic contribution  to forces
     atom    1 type  1   force =    -0.02304829    0.00830967   -0.01492677
     atom    2 type  1   force =     0.02304829   -0.00830967    0.01492677
     The local contribution  to forces
     atom    1 type  1   force =     0.03759531   -0.00953593    0.01463577
     atom    2 type  1   force =    -0.03760099    0.00955679   -0.01465310
     The core correction contribution to forces
     atom    1 type  1   force =     0.00220894   -0.00055868    0.00033654
     atom    2 type  1   force =    -0.00217324    0.00056576   -0.00048643
     The Hubbard contrib.    to forces
     atom    1 type  1   force =     0.00000000    0.00000000    0.00000000
     atom    2 type  1   force =     0.00000000    0.00000000    0.00000000
     The SCF correction term to forces
     atom    1 type  1   force =    -0.00037597    0.00018275   -0.00142555
     atom    2 type  1   force =     0.00038036   -0.00018263    0.00142984

     Total force =     0.050824     Total SCF correction =     0.002105


     Computing stress (Cartesian axis) and pressure

          total   stress  (Ry/bohr**3)                   (kbar)     P=       14.43
   0.00035660  -0.00066526   0.00036843           52.46      -97.86       54.20
  -0.00066526   0.00021726  -0.00040542          -97.86       31.96      -59.64
   0.00036843  -0.00040542  -0.00027955           54.20      -59.64      -41.12

     kinetic stress (kbar)   2808.87    -81.33     40.05
                              -81.33   2796.18    -45.60
                               40.05    -45.60   2716.79

     local   stress (kbar)    259.63    122.63     -5.82
                              122.63    257.04     23.13
                               -5.82     23.13    206.53

     nonloc. stress (kbar)    889.83    -18.82     -0.05
                              -18.82    889.25     -2.89
                               -0.05     -2.89    907.18

     hartree stress (kbar)      0.54     -1.05     -0.54
                               -1.05      1.24      0.14
                               -0.54      0.14      4.42

     exc-cor stress (kbar)    120.24     -2.08      0.30
                               -2.08    120.16     -0.56
                                0.30     -0.56    120.42

     corecor stress (kbar)  -1216.87      6.23     -1.02
                                6.23  -1216.57      1.74
                               -1.02      1.74  -1216.97

     ewald   stress (kbar)  -2809.78   -123.44     21.27
                             -123.44  -2815.34    -35.59
                               21.27    -35.59  -2779.49

     hubbard stress (kbar)      0.00      0.00      0.00
                                0.00      0.00      0.00
                                0.00      0.00      0.00

     DFT-D   stress (kbar)      0.00      0.00      0.00
                                0.00      0.00      0.00
                                0.00      0.00      0.00

     XDM     stress (kbar)      0.00      0.00      0.00
                                0.00      0.00      0.00
                                0.00      0.00      0.00

     dft-nl  stress (kbar)      0.00      0.00      0.00
                                0.00      0.00      0.00
                                0.00      0.00      0.00

     TS-vdW  stress (kbar)      0.00      0.00      0.00
                                0.00      0.00      0.00
                                0.00      0.00      0.00

     MDB     stress (kbar)      0.00      0.00      0.00
                                0.00      0.00      0.00
                                0.00      0.00      0.00

     3D-RISM stress (kbar)      0.00      0.00      0.00
                                0.00      0.00      0.00
                                0.00      0.00      0.00


     Writing all to output data dir ../tmp/Be/Be.save/ :
     XML data file, charge density, pseudopotentials, collected wavefunctions

     init_run     :      1.49s CPU      1.54s WALL (       1 calls)
     electrons    :      5.17s CPU      5.35s WALL (       1 calls)
     forces       :      0.12s CPU      0.13s WALL (       1 calls)
     stress       :      1.33s CPU      1.39s WALL (       1 calls)

     Called by init_run:
     wfcinit      :      1.14s CPU      1.18s WALL (       1 calls)
     wfcinit:atom :      0.03s CPU      0.03s WALL (     512 calls)
     wfcinit:wfcr :      0.95s CPU      0.98s WALL (     512 calls)
     potinit      :      0.02s CPU      0.02s WALL (       1 calls)
     hinit0       :      0.30s CPU      0.31s WALL (       1 calls)

     Called by electrons:
     c_bands      :      4.64s CPU      4.81s WALL (       2 calls)
     sum_band     :      0.51s CPU      0.52s WALL (       2 calls)
     v_of_rho     :      0.01s CPU      0.01s WALL (       2 calls)
     v_h          :      0.00s CPU      0.00s WALL (       2 calls)
     v_xc         :      0.02s CPU      0.02s WALL (       4 calls)
     newd         :      0.00s CPU      0.01s WALL (       2 calls)
     mix_rho      :      0.00s CPU      0.00s WALL (       2 calls)

     Called by c_bands:
     init_us_2    :      0.32s CPU      0.33s WALL (    3584 calls)
     cegterg      :      4.42s CPU      4.58s WALL (    1024 calls)

     Called by sum_band:
     sum_band:wei :      0.00s CPU      0.00s WALL (       2 calls)
     sum_band:loo :      0.51s CPU      0.52s WALL (       2 calls)
     sum_band:buf :      0.00s CPU      0.01s WALL (    1024 calls)
     sum_band:ini :      0.09s CPU      0.09s WALL (    1024 calls)
     sum_band:cal :      0.02s CPU      0.02s WALL (    1024 calls)
     sum_band:bec :      0.00s CPU      0.00s WALL (    1024 calls)
     addusdens    :      0.01s CPU      0.01s WALL (       2 calls)
                                        0.00s GPU  (       2 calls)
     addusd:skk   :      0.00s CPU      0.00s WALL (       2 calls)
                                        0.00s GPU  (       2 calls)

     Called by *egterg:
     cdiaghg      :      0.19s CPU      0.20s WALL (    5999 calls)
     cegterg:over :      0.06s CPU      0.07s WALL (    5487 calls)
     cegterg:upda :      0.09s CPU      0.09s WALL (    5487 calls)
     cegterg:last :      0.12s CPU      0.12s WALL (    4463 calls)
     h_psi        :      4.66s CPU      4.82s WALL (    7023 calls)
     s_psi        :      0.10s CPU      0.10s WALL (    7023 calls)
     g_psi        :      0.03s CPU      0.04s WALL (    5487 calls)

     Called by h_psi:
     h_psi:calbec :      0.11s CPU      0.11s WALL (    7023 calls)
     vloc_psi     :      4.42s CPU      4.57s WALL (    7023 calls)
     add_vuspsi   :      0.10s CPU      0.10s WALL (    7023 calls)

     General routines
     calbec       :      0.15s CPU      0.16s WALL (   10607 calls)
     fft          :      0.16s CPU      0.16s WALL (      48 calls)
     ffts         :      0.00s CPU      0.00s WALL (       2 calls)
     fftw         :      4.27s CPU      4.41s WALL (   51514 calls)


     PWSCF        :      8.23s CPU      8.59s WALL


   This run was terminated on:  18:51: 0   6May2024            

=------------------------------------------------------------------------------=
   JOB DONE.
=------------------------------------------------------------------------------=
