
     Program PWSCF v.7.3.1 starts on  6May2024 at 18:51: 5 

     This program is part of the open-source Quantum ESPRESSO suite
     for quantum simulation of materials; please cite
         "P. Giannozzi et al., J. Phys.:Condens. Matter 21 395502 (2009);
         "P. Giannozzi et al., J. Phys.:Condens. Matter 29 465901 (2017);
         "P. Giannozzi et al., J. Chem. Phys. 152 154105 (2020);
          URL http://www.quantum-espresso.org", 
     in publications or presentations arising from this work. More details at
     http://www.quantum-espresso.org/quote

     Serial version
     2179 MiB available memory on the printing compute node when the environment starts

     Reading input from Be8.pw.in

     Current dimensions of program PWSCF are:
     Max number of different atomic species (ntypx) = 10
     Max number of k-points (npk) =  40000
     Max angular momentum in pseudopotentials (lmaxx) =  4


     G-vector sticks info
     --------------------
     sticks:   dense  smooth     PW     G-vecs:    dense   smooth      PW
     Sum         215     215     85                 4069     4069     971

     Using Slab Decomposition



     bravais-lattice index     =            0
     lattice parameter (alat)  =       4.5872  a.u.
     unit-cell volume          =     118.8229 (a.u.)^3
     number of atoms/cell      =            2
     number of atomic types    =            1
     number of electrons       =         4.00
     number of Kohn-Sham states=            4
     kinetic-energy cutoff     =      40.0000  Ry
     charge density cutoff     =     160.0000  Ry
     scf convergence threshold =      2.0E-02
     mixing beta               =       0.1000
     number of iterations used =            8  plain     mixing
     Exchange-correlation= PBE
                           (   1   4   3   4   0   0   0)

     celldm(1)=   4.587228  celldm(2)=   0.000000  celldm(3)=   0.000000
     celldm(4)=   0.000000  celldm(5)=   0.000000  celldm(6)=   0.000000

     crystal axes: (cart. coord. in units of alat)
               a(1) = (   0.996828   0.053159   0.059233 )  
               a(2) = (  -0.506026   0.778937   0.048338 )  
               a(3) = (  -0.022167   0.071100   1.537987 )  

     reciprocal axes: (cart. coord. in units 2 pi/alat)
               b(1) = (  0.970416  0.631361 -0.015201 )  
               b(2) = ( -0.062996  1.246509 -0.058533 )  
               b(3) = ( -0.035394 -0.063493  0.652626 )  


     PseudoPot. # 1 for Be read from file:
     ../pseudo/Be.pbe-n-rrkjus_psl.1.0.0.UPF
     MD5 check sum: 734a25375992c446e1da9bf329ae4716
     Pseudo is Ultrasoft + core correction, Zval =  2.0
     Generated using &quot;atomic&quot; code by A. Dal Corso  v.6.6
     Using radial grid of 1041 points,  4 beta functions with: 
                l(1) =   0
                l(2) =   0
                l(3) =   1
                l(4) =   1
     Q(r) pseudized with 0 coefficients 


     atomic species   valence    mass     pseudopotential
     Be                2.00     9.01218     Be( 1.00)

     No symmetry found


                                    s                        frac. trans.

      isym =  1     identity                                     

 cryst.   s( 1) = (     1          0          0      )
                  (     0          1          0      )
                  (     0          0          1      )

 cart.    s( 1) = (  1.0000000 -0.0000000  0.0000000 )
                  ( -0.0000000  1.0000000 -0.0000000 )
                  (  0.0000000 -0.0000000  1.0000000 )


   Cartesian axes

     site n.     atom                  positions (alat units)
         1        Be     tau(   1) = (   0.7221068   0.1322387   1.1030775  )
         2        Be     tau(   2) = (  -0.2566349   0.6739823   0.3675475  )

   Crystallographic axes

     site n.     atom                  positions (cryst. coord.)
         1        Be     tau(   1) = (  0.7674667  0.0547803  0.6859425  )
         2        Be     tau(   2) = (  0.1708967  0.8347781  0.2061612  )

     number of k points=   512  Fermi-Dirac smearing, width (Ry)=  0.0019
                       cart. coord. in units 2pi/alat
        k(    1) = (   0.0000000   0.0000000   0.0000000), wk =   0.0039062
        k(    2) = (  -0.0044242  -0.0079366   0.0815782), wk =   0.0039062
        k(    3) = (  -0.0088484  -0.0158732   0.1631564), wk =   0.0039062
        k(    4) = (  -0.0132726  -0.0238098   0.2447347), wk =   0.0039062
        k(    5) = (   0.0176969   0.0317464  -0.3263129), wk =   0.0039062
        k(    6) = (   0.0132726   0.0238098  -0.2447347), wk =   0.0039062
        k(    7) = (   0.0088484   0.0158732  -0.1631564), wk =   0.0039062
        k(    8) = (   0.0044242   0.0079366  -0.0815782), wk =   0.0039062
        k(    9) = (  -0.0078745   0.1558136  -0.0073166), wk =   0.0039062
        k(   10) = (  -0.0122987   0.1478770   0.0742616), wk =   0.0039062
        k(   11) = (  -0.0167229   0.1399404   0.1558398), wk =   0.0039062
        k(   12) = (  -0.0211472   0.1320038   0.2374180), wk =   0.0039062
        k(   13) = (   0.0098223   0.1875599  -0.3336295), wk =   0.0039062
        k(   14) = (   0.0053981   0.1796233  -0.2520513), wk =   0.0039062
        k(   15) = (   0.0009739   0.1716868  -0.1704731), wk =   0.0039062
        k(   16) = (  -0.0034503   0.1637502  -0.0888948), wk =   0.0039062
        k(   17) = (  -0.0157490   0.3116272  -0.0146333), wk =   0.0039062
        k(   18) = (  -0.0201732   0.3036906   0.0669450), wk =   0.0039062
        k(   19) = (  -0.0245975   0.2957540   0.1485232), wk =   0.0039062
        k(   20) = (  -0.0290217   0.2878174   0.2301014), wk =   0.0039062
        k(   21) = (   0.0019478   0.3433735  -0.3409461), wk =   0.0039062
        k(   22) = (  -0.0024764   0.3354369  -0.2593679), wk =   0.0039062
        k(   23) = (  -0.0069006   0.3275003  -0.1777897), wk =   0.0039062
        k(   24) = (  -0.0113248   0.3195637  -0.0962115), wk =   0.0039062
        k(   25) = (  -0.0236235   0.4674407  -0.0219499), wk =   0.0039062
        k(   26) = (  -0.0280478   0.4595041   0.0596283), wk =   0.0039062
        k(   27) = (  -0.0324720   0.4515676   0.1412066), wk =   0.0039062
        k(   28) = (  -0.0368962   0.4436310   0.2227848), wk =   0.0039062
        k(   29) = (  -0.0059267   0.4991871  -0.3482628), wk =   0.0039062
        k(   30) = (  -0.0103509   0.4912505  -0.2666845), wk =   0.0039062
        k(   31) = (  -0.0147751   0.4833139  -0.1851063), wk =   0.0039062
        k(   32) = (  -0.0191993   0.4753773  -0.1035281), wk =   0.0039062
        k(   33) = (   0.0314981  -0.6232543   0.0292665), wk =   0.0039062
        k(   34) = (   0.0270738  -0.6311909   0.1108447), wk =   0.0039062
        k(   35) = (   0.0226496  -0.6391275   0.1924229), wk =   0.0039062
        k(   36) = (   0.0182254  -0.6470641   0.2740012), wk =   0.0039062
        k(   37) = (   0.0491949  -0.5915079  -0.2970464), wk =   0.0039062
        k(   38) = (   0.0447707  -0.5994445  -0.2154682), wk =   0.0039062
        k(   39) = (   0.0403465  -0.6073811  -0.1338899), wk =   0.0039062
        k(   40) = (   0.0359223  -0.6153177  -0.0523117), wk =   0.0039062
        k(   41) = (   0.0236235  -0.4674407   0.0219499), wk =   0.0039062
        k(   42) = (   0.0191993  -0.4753773   0.1035281), wk =   0.0039062
        k(   43) = (   0.0147751  -0.4833139   0.1851063), wk =   0.0039062
        k(   44) = (   0.0103509  -0.4912505   0.2666845), wk =   0.0039062
        k(   45) = (   0.0413204  -0.4356944  -0.3043630), wk =   0.0039062
        k(   46) = (   0.0368962  -0.4436310  -0.2227848), wk =   0.0039062
        k(   47) = (   0.0324720  -0.4515676  -0.1412066), wk =   0.0039062
        k(   48) = (   0.0280478  -0.4595041  -0.0596283), wk =   0.0039062
        k(   49) = (   0.0157490  -0.3116272   0.0146333), wk =   0.0039062
        k(   50) = (   0.0113248  -0.3195637   0.0962115), wk =   0.0039062
        k(   51) = (   0.0069006  -0.3275003   0.1777897), wk =   0.0039062
        k(   52) = (   0.0024764  -0.3354369   0.2593679), wk =   0.0039062
        k(   53) = (   0.0334459  -0.2798808  -0.3116796), wk =   0.0039062
        k(   54) = (   0.0290217  -0.2878174  -0.2301014), wk =   0.0039062
        k(   55) = (   0.0245975  -0.2957540  -0.1485232), wk =   0.0039062
        k(   56) = (   0.0201732  -0.3036906  -0.0669450), wk =   0.0039062
        k(   57) = (   0.0078745  -0.1558136   0.0073166), wk =   0.0039062
        k(   58) = (   0.0034503  -0.1637502   0.0888948), wk =   0.0039062
        k(   59) = (  -0.0009739  -0.1716868   0.1704731), wk =   0.0039062
        k(   60) = (  -0.0053981  -0.1796233   0.2520513), wk =   0.0039062
        k(   61) = (   0.0255714  -0.1240672  -0.3189963), wk =   0.0039062
        k(   62) = (   0.0211472  -0.1320038  -0.2374180), wk =   0.0039062
        k(   63) = (   0.0167229  -0.1399404  -0.1558398), wk =   0.0039062
        k(   64) = (   0.0122987  -0.1478770  -0.0742616), wk =   0.0039062
        k(   65) = (   0.1213020   0.0789202  -0.0019001), wk =   0.0039062
        k(   66) = (   0.1168778   0.0709836   0.0796781), wk =   0.0039062
        k(   67) = (   0.1124536   0.0630470   0.1612563), wk =   0.0039062
        k(   68) = (   0.1080294   0.0551104   0.2428345), wk =   0.0039062
        k(   69) = (   0.1389989   0.1106665  -0.3282130), wk =   0.0039062
        k(   70) = (   0.1345747   0.1027299  -0.2466348), wk =   0.0039062
        k(   71) = (   0.1301504   0.0947933  -0.1650566), wk =   0.0039062
        k(   72) = (   0.1257262   0.0868568  -0.0834783), wk =   0.0039062
        k(   73) = (   0.1134275   0.2347337  -0.0092167), wk =   0.0039062
        k(   74) = (   0.1090033   0.2267971   0.0723615), wk =   0.0039062
        k(   75) = (   0.1045791   0.2188606   0.1539397), wk =   0.0039062
        k(   76) = (   0.1001549   0.2109240   0.2355179), wk =   0.0039062
        k(   77) = (   0.1311244   0.2664801  -0.3355296), wk =   0.0039062
        k(   78) = (   0.1267002   0.2585435  -0.2539514), wk =   0.0039062
        k(   79) = (   0.1222759   0.2506069  -0.1723732), wk =   0.0039062
        k(   80) = (   0.1178517   0.2426703  -0.0907950), wk =   0.0039062
        k(   81) = (   0.1055530   0.3905473  -0.0165334), wk =   0.0039062
        k(   82) = (   0.1011288   0.3826107   0.0650449), wk =   0.0039062
        k(   83) = (   0.0967046   0.3746741   0.1466231), wk =   0.0039062
        k(   84) = (   0.0922803   0.3667375   0.2282013), wk =   0.0039062
        k(   85) = (   0.1232499   0.4222937  -0.3428462), wk =   0.0039062
        k(   86) = (   0.1188256   0.4143571  -0.2612680), wk =   0.0039062
        k(   87) = (   0.1144014   0.4064205  -0.1796898), wk =   0.0039062
        k(   88) = (   0.1099772   0.3984839  -0.0981116), wk =   0.0039062
        k(   89) = (   0.0976785   0.5463609  -0.0238500), wk =   0.0039062
        k(   90) = (   0.0932543   0.5384243   0.0577282), wk =   0.0039062
        k(   91) = (   0.0888300   0.5304877   0.1393064), wk =   0.0039062
        k(   92) = (   0.0844058   0.5225511   0.2208847), wk =   0.0039062
        k(   93) = (   0.1153753   0.5781072  -0.3501629), wk =   0.0039062
        k(   94) = (   0.1109511   0.5701707  -0.2685846), wk =   0.0039062
        k(   95) = (   0.1065269   0.5622341  -0.1870064), wk =   0.0039062
        k(   96) = (   0.1021027   0.5542975  -0.1054282), wk =   0.0039062
        k(   97) = (   0.1528001  -0.5443341   0.0273664), wk =   0.0039062
        k(   98) = (   0.1483759  -0.5522707   0.1089446), wk =   0.0039062
        k(   99) = (   0.1439516  -0.5602073   0.1905228), wk =   0.0039062
        k(  100) = (   0.1395274  -0.5681439   0.2721010), wk =   0.0039062
        k(  101) = (   0.1704969  -0.5125878  -0.2989465), wk =   0.0039062
        k(  102) = (   0.1660727  -0.5205244  -0.2173683), wk =   0.0039062
        k(  103) = (   0.1616485  -0.5284610  -0.1357901), wk =   0.0039062
        k(  104) = (   0.1572243  -0.5363976  -0.0542118), wk =   0.0039062
        k(  105) = (   0.1449256  -0.3885206   0.0200498), wk =   0.0039062
        k(  106) = (   0.1405013  -0.3964572   0.1016280), wk =   0.0039062
        k(  107) = (   0.1360771  -0.4043937   0.1832062), wk =   0.0039062
        k(  108) = (   0.1316529  -0.4123303   0.2647844), wk =   0.0039062
        k(  109) = (   0.1626224  -0.3567742  -0.3062631), wk =   0.0039062
        k(  110) = (   0.1581982  -0.3647108  -0.2246849), wk =   0.0039062
        k(  111) = (   0.1537740  -0.3726474  -0.1431067), wk =   0.0039062
        k(  112) = (   0.1493498  -0.3805840  -0.0615285), wk =   0.0039062
        k(  113) = (   0.1370510  -0.2327070   0.0127331), wk =   0.0039062
        k(  114) = (   0.1326268  -0.2406436   0.0943114), wk =   0.0039062
        k(  115) = (   0.1282026  -0.2485802   0.1758896), wk =   0.0039062
        k(  116) = (   0.1237784  -0.2565168   0.2574678), wk =   0.0039062
        k(  117) = (   0.1547479  -0.2009606  -0.3135797), wk =   0.0039062
        k(  118) = (   0.1503237  -0.2088972  -0.2320015), wk =   0.0039062
        k(  119) = (   0.1458995  -0.2168338  -0.1504233), wk =   0.0039062
        k(  120) = (   0.1414753  -0.2247704  -0.0688451), wk =   0.0039062
        k(  121) = (   0.1291765  -0.0768934   0.0054165), wk =   0.0039062
        k(  122) = (   0.1247523  -0.0848300   0.0869947), wk =   0.0039062
        k(  123) = (   0.1203281  -0.0927666   0.1685729), wk =   0.0039062
        k(  124) = (   0.1159039  -0.1007032   0.2501512), wk =   0.0039062
        k(  125) = (   0.1468734  -0.0451471  -0.3208964), wk =   0.0039062
        k(  126) = (   0.1424492  -0.0530836  -0.2393181), wk =   0.0039062
        k(  127) = (   0.1380250  -0.0610202  -0.1577399), wk =   0.0039062
        k(  128) = (   0.1336007  -0.0689568  -0.0761617), wk =   0.0039062
        k(  129) = (   0.2426040   0.1578403  -0.0038002), wk =   0.0039062
        k(  130) = (   0.2381798   0.1499037   0.0777780), wk =   0.0039062
        k(  131) = (   0.2337556   0.1419671   0.1593562), wk =   0.0039062
        k(  132) = (   0.2293314   0.1340306   0.2409344), wk =   0.0039062
        k(  133) = (   0.2603009   0.1895867  -0.3301131), wk =   0.0039062
        k(  134) = (   0.2558767   0.1816501  -0.2485349), wk =   0.0039062
        k(  135) = (   0.2514525   0.1737135  -0.1669567), wk =   0.0039062
        k(  136) = (   0.2470283   0.1657769  -0.0853785), wk =   0.0039062
        k(  137) = (   0.2347295   0.3136539  -0.0111169), wk =   0.0039062
        k(  138) = (   0.2303053   0.3057173   0.0704614), wk =   0.0039062
        k(  139) = (   0.2258811   0.2977807   0.1520396), wk =   0.0039062
        k(  140) = (   0.2214569   0.2898441   0.2336178), wk =   0.0039062
        k(  141) = (   0.2524264   0.3454003  -0.3374297), wk =   0.0039062
        k(  142) = (   0.2480022   0.3374637  -0.2558515), wk =   0.0039062
        k(  143) = (   0.2435780   0.3295271  -0.1742733), wk =   0.0039062
        k(  144) = (   0.2391537   0.3215905  -0.0926951), wk =   0.0039062
        k(  145) = (   0.2268550   0.4694675  -0.0184335), wk =   0.0039062
        k(  146) = (   0.2224308   0.4615309   0.0631447), wk =   0.0039062
        k(  147) = (   0.2180066   0.4535943   0.1447230), wk =   0.0039062
        k(  148) = (   0.2135824   0.4456577   0.2263012), wk =   0.0039062
        k(  149) = (   0.2445519   0.5012138  -0.3447464), wk =   0.0039062
        k(  150) = (   0.2401277   0.4932772  -0.2631681), wk =   0.0039062
        k(  151) = (   0.2357034   0.4853407  -0.1815899), wk =   0.0039062
        k(  152) = (   0.2312792   0.4774041  -0.1000117), wk =   0.0039062
        k(  153) = (   0.2189805   0.6252811  -0.0257501), wk =   0.0039062
        k(  154) = (   0.2145563   0.6173445   0.0558281), wk =   0.0039062
        k(  155) = (   0.2101321   0.6094079   0.1374063), wk =   0.0039062
        k(  156) = (   0.2057078   0.6014713   0.2189846), wk =   0.0039062
        k(  157) = (   0.2366774   0.6570274  -0.3520630), wk =   0.0039062
        k(  158) = (   0.2322531   0.6490908  -0.2704848), wk =   0.0039062
        k(  159) = (   0.2278289   0.6411542  -0.1889065), wk =   0.0039062
        k(  160) = (   0.2234047   0.6332176  -0.1073283), wk =   0.0039062
        k(  161) = (   0.2741021  -0.4654140   0.0254663), wk =   0.0039062
        k(  162) = (   0.2696779  -0.4733506   0.1070445), wk =   0.0039062
        k(  163) = (   0.2652537  -0.4812872   0.1886227), wk =   0.0039062
        k(  164) = (   0.2608294  -0.4892237   0.2702009), wk =   0.0039062
        k(  165) = (   0.2917990  -0.4336676  -0.3008466), wk =   0.0039062
        k(  166) = (   0.2873747  -0.4416042  -0.2192684), wk =   0.0039062
        k(  167) = (   0.2829505  -0.4495408  -0.1376902), wk =   0.0039062
        k(  168) = (   0.2785263  -0.4574774  -0.0561120), wk =   0.0039062
        k(  169) = (   0.2662276  -0.3096004   0.0181496), wk =   0.0039062
        k(  170) = (   0.2618034  -0.3175370   0.0997279), wk =   0.0039062
        k(  171) = (   0.2573791  -0.3254736   0.1813061), wk =   0.0039062
        k(  172) = (   0.2529549  -0.3334102   0.2628843), wk =   0.0039062
        k(  173) = (   0.2839244  -0.2778540  -0.3081632), wk =   0.0039062
        k(  174) = (   0.2795002  -0.2857906  -0.2265850), wk =   0.0039062
        k(  175) = (   0.2750760  -0.2937272  -0.1450068), wk =   0.0039062
        k(  176) = (   0.2706518  -0.3016638  -0.0634286), wk =   0.0039062
        k(  177) = (   0.2583531  -0.1537868   0.0108330), wk =   0.0039062
        k(  178) = (   0.2539288  -0.1617234   0.0924112), wk =   0.0039062
        k(  179) = (   0.2495046  -0.1696600   0.1739895), wk =   0.0039062
        k(  180) = (   0.2450804  -0.1775966   0.2555677), wk =   0.0039062
        k(  181) = (   0.2760499  -0.1220405  -0.3154799), wk =   0.0039062
        k(  182) = (   0.2716257  -0.1299771  -0.2339016), wk =   0.0039062
        k(  183) = (   0.2672015  -0.1379137  -0.1523234), wk =   0.0039062
        k(  184) = (   0.2627773  -0.1458502  -0.0707452), wk =   0.0039062
        k(  185) = (   0.2504785   0.0020267   0.0035164), wk =   0.0039062
        k(  186) = (   0.2460543  -0.0059098   0.0850946), wk =   0.0039062
        k(  187) = (   0.2416301  -0.0138464   0.1666728), wk =   0.0039062
        k(  188) = (   0.2372059  -0.0217830   0.2482511), wk =   0.0039062
        k(  189) = (   0.2681754   0.0337731  -0.3227965), wk =   0.0039062
        k(  190) = (   0.2637512   0.0258365  -0.2412183), wk =   0.0039062
        k(  191) = (   0.2593270   0.0178999  -0.1596400), wk =   0.0039062
        k(  192) = (   0.2549028   0.0099633  -0.0780618), wk =   0.0039062
        k(  193) = (   0.3639061   0.2367605  -0.0057003), wk =   0.0039062
        k(  194) = (   0.3594818   0.2288239   0.0758779), wk =   0.0039062
        k(  195) = (   0.3550576   0.2208873   0.1574561), wk =   0.0039062
        k(  196) = (   0.3506334   0.2129507   0.2390343), wk =   0.0039062
        k(  197) = (   0.3816029   0.2685068  -0.3320132), wk =   0.0039062
        k(  198) = (   0.3771787   0.2605703  -0.2504350), wk =   0.0039062
        k(  199) = (   0.3727545   0.2526337  -0.1688568), wk =   0.0039062
        k(  200) = (   0.3683303   0.2446971  -0.0872786), wk =   0.0039062
        k(  201) = (   0.3560315   0.3925741  -0.0130170), wk =   0.0039062
        k(  202) = (   0.3516073   0.3846375   0.0685612), wk =   0.0039062
        k(  203) = (   0.3471831   0.3767009   0.1501395), wk =   0.0039062
        k(  204) = (   0.3427589   0.3687643   0.2317177), wk =   0.0039062
        k(  205) = (   0.3737284   0.4243204  -0.3393298), wk =   0.0039062
        k(  206) = (   0.3693042   0.4163838  -0.2577516), wk =   0.0039062
        k(  207) = (   0.3648800   0.4084472  -0.1761734), wk =   0.0039062
        k(  208) = (   0.3604558   0.4005107  -0.0945952), wk =   0.0039062
        k(  209) = (   0.3481570   0.5483876  -0.0203336), wk =   0.0039062
        k(  210) = (   0.3437328   0.5404511   0.0612446), wk =   0.0039062
        k(  211) = (   0.3393086   0.5325145   0.1428228), wk =   0.0039062
        k(  212) = (   0.3348844   0.5245779   0.2244011), wk =   0.0039062
        k(  213) = (   0.3658539   0.5801340  -0.3466465), wk =   0.0039062
        k(  214) = (   0.3614297   0.5721974  -0.2650683), wk =   0.0039062
        k(  215) = (   0.3570055   0.5642608  -0.1834900), wk =   0.0039062
        k(  216) = (   0.3525812   0.5563242  -0.1019118), wk =   0.0039062
        k(  217) = (   0.3402825   0.7042012  -0.0276502), wk =   0.0039062
        k(  218) = (   0.3358583   0.6962646   0.0539280), wk =   0.0039062
        k(  219) = (   0.3314341   0.6883280   0.1355062), wk =   0.0039062
        k(  220) = (   0.3270099   0.6803914   0.2170844), wk =   0.0039062
        k(  221) = (   0.3579794   0.7359476  -0.3539631), wk =   0.0039062
        k(  222) = (   0.3535552   0.7280110  -0.2723849), wk =   0.0039062
        k(  223) = (   0.3491309   0.7200744  -0.1908067), wk =   0.0039062
        k(  224) = (   0.3447067   0.7121378  -0.1092284), wk =   0.0039062
        k(  225) = (   0.3954041  -0.3864938   0.0235662), wk =   0.0039062
        k(  226) = (   0.3909799  -0.3944304   0.1051444), wk =   0.0039062
        k(  227) = (   0.3865557  -0.4023670   0.1867226), wk =   0.0039062
        k(  228) = (   0.3821315  -0.4103036   0.2683008), wk =   0.0039062
        k(  229) = (   0.4131010  -0.3547475  -0.3027467), wk =   0.0039062
        k(  230) = (   0.4086768  -0.3626841  -0.2211685), wk =   0.0039062
        k(  231) = (   0.4042525  -0.3706206  -0.1395903), wk =   0.0039062
        k(  232) = (   0.3998283  -0.3785572  -0.0580121), wk =   0.0039062
        k(  233) = (   0.3875296  -0.2306802   0.0162495), wk =   0.0039062
        k(  234) = (   0.3831054  -0.2386168   0.0978277), wk =   0.0039062
        k(  235) = (   0.3786812  -0.2465534   0.1794060), wk =   0.0039062
        k(  236) = (   0.3742569  -0.2544900   0.2609842), wk =   0.0039062
        k(  237) = (   0.4052265  -0.1989339  -0.3100633), wk =   0.0039062
        k(  238) = (   0.4008022  -0.2068705  -0.2284851), wk =   0.0039062
        k(  239) = (   0.3963780  -0.2148071  -0.1469069), wk =   0.0039062
        k(  240) = (   0.3919538  -0.2227437  -0.0653287), wk =   0.0039062
        k(  241) = (   0.3796551  -0.0748667   0.0089329), wk =   0.0039062
        k(  242) = (   0.3752309  -0.0828033   0.0905111), wk =   0.0039062
        k(  243) = (   0.3708066  -0.0907398   0.1720893), wk =   0.0039062
        k(  244) = (   0.3663824  -0.0986764   0.2536676), wk =   0.0039062
        k(  245) = (   0.3973519  -0.0431203  -0.3173800), wk =   0.0039062
        k(  246) = (   0.3929277  -0.0510569  -0.2358018), wk =   0.0039062
        k(  247) = (   0.3885035  -0.0589935  -0.1542235), wk =   0.0039062
        k(  248) = (   0.3840793  -0.0669301  -0.0726453), wk =   0.0039062
        k(  249) = (   0.3717806   0.0809469   0.0016163), wk =   0.0039062
        k(  250) = (   0.3673564   0.0730103   0.0831945), wk =   0.0039062
        k(  251) = (   0.3629321   0.0650737   0.1647727), wk =   0.0039062
        k(  252) = (   0.3585079   0.0571371   0.2463509), wk =   0.0039062
        k(  253) = (   0.3894774   0.1126933  -0.3246966), wk =   0.0039062
        k(  254) = (   0.3850532   0.1047567  -0.2431184), wk =   0.0039062
        k(  255) = (   0.3806290   0.0968201  -0.1615402), wk =   0.0039062
        k(  256) = (   0.3762048   0.0888835  -0.0799619), wk =   0.0039062
        k(  257) = (  -0.4852081  -0.3156806   0.0076005), wk =   0.0039062
        k(  258) = (  -0.4896323  -0.3236172   0.0891787), wk =   0.0039062
        k(  259) = (  -0.4940565  -0.3315538   0.1707569), wk =   0.0039062
        k(  260) = (  -0.4984807  -0.3394904   0.2523351), wk =   0.0039062
        k(  261) = (  -0.4675112  -0.2839343  -0.3187124), wk =   0.0039062
        k(  262) = (  -0.4719354  -0.2918709  -0.2371342), wk =   0.0039062
        k(  263) = (  -0.4763596  -0.2998075  -0.1555560), wk =   0.0039062
        k(  264) = (  -0.4807839  -0.3077441  -0.0739778), wk =   0.0039062
        k(  265) = (  -0.4930826  -0.1598671   0.0002838), wk =   0.0039062
        k(  266) = (  -0.4975068  -0.1678037   0.0818621), wk =   0.0039062
        k(  267) = (  -0.5019310  -0.1757402   0.1634403), wk =   0.0039062
        k(  268) = (  -0.5063552  -0.1836768   0.2450185), wk =   0.0039062
        k(  269) = (  -0.4753857  -0.1281207  -0.3260290), wk =   0.0039062
        k(  270) = (  -0.4798099  -0.1360573  -0.2444508), wk =   0.0039062
        k(  271) = (  -0.4842342  -0.1439939  -0.1628726), wk =   0.0039062
        k(  272) = (  -0.4886584  -0.1519305  -0.0812944), wk =   0.0039062
        k(  273) = (  -0.5009571  -0.0040535  -0.0070328), wk =   0.0039062
        k(  274) = (  -0.5053813  -0.0119901   0.0745454), wk =   0.0039062
        k(  275) = (  -0.5098055  -0.0199267   0.1561237), wk =   0.0039062
        k(  276) = (  -0.5142297  -0.0278633   0.2377019), wk =   0.0039062
        k(  277) = (  -0.4832602   0.0276929  -0.3333457), wk =   0.0039062
        k(  278) = (  -0.4876845   0.0197563  -0.2517674), wk =   0.0039062
        k(  279) = (  -0.4921087   0.0118197  -0.1701892), wk =   0.0039062
        k(  280) = (  -0.4965329   0.0038831  -0.0886110), wk =   0.0039062
        k(  281) = (  -0.5088316   0.1517601  -0.0143494), wk =   0.0039062
        k(  282) = (  -0.5132558   0.1438235   0.0672288), wk =   0.0039062
        k(  283) = (  -0.5176800   0.1358869   0.1488070), wk =   0.0039062
        k(  284) = (  -0.5221043   0.1279503   0.2303852), wk =   0.0039062
        k(  285) = (  -0.4911347   0.1835064  -0.3406623), wk =   0.0039062
        k(  286) = (  -0.4955590   0.1755698  -0.2590841), wk =   0.0039062
        k(  287) = (  -0.4999832   0.1676333  -0.1775058), wk =   0.0039062
        k(  288) = (  -0.5044074   0.1596967  -0.0959276), wk =   0.0039062
        k(  289) = (  -0.4537100  -0.9389350   0.0368670), wk =   0.0039062
        k(  290) = (  -0.4581342  -0.9468715   0.1184452), wk =   0.0039062
        k(  291) = (  -0.4625584  -0.9548081   0.2000234), wk =   0.0039062
        k(  292) = (  -0.4669827  -0.9627447   0.2816016), wk =   0.0039062
        k(  293) = (  -0.4360131  -0.9071886  -0.2894459), wk =   0.0039062
        k(  294) = (  -0.4404374  -0.9151252  -0.2078677), wk =   0.0039062
        k(  295) = (  -0.4448616  -0.9230618  -0.1262895), wk =   0.0039062
        k(  296) = (  -0.4492858  -0.9309984  -0.0447113), wk =   0.0039062
        k(  297) = (  -0.4615845  -0.7831214   0.0295503), wk =   0.0039062
        k(  298) = (  -0.4660087  -0.7910580   0.1111286), wk =   0.0039062
        k(  299) = (  -0.4704330  -0.7989946   0.1927068), wk =   0.0039062
        k(  300) = (  -0.4748572  -0.8069311   0.2742850), wk =   0.0039062
        k(  301) = (  -0.4438877  -0.7513750  -0.2967625), wk =   0.0039062
        k(  302) = (  -0.4483119  -0.7593116  -0.2151843), wk =   0.0039062
        k(  303) = (  -0.4527361  -0.7672482  -0.1336061), wk =   0.0039062
        k(  304) = (  -0.4571603  -0.7751848  -0.0520279), wk =   0.0039062
        k(  305) = (  -0.4694590  -0.6273078   0.0222337), wk =   0.0039062
        k(  306) = (  -0.4738833  -0.6352444   0.1038119), wk =   0.0039062
        k(  307) = (  -0.4783075  -0.6431810   0.1853902), wk =   0.0039062
        k(  308) = (  -0.4827317  -0.6511176   0.2669684), wk =   0.0039062
        k(  309) = (  -0.4517622  -0.5955614  -0.3040792), wk =   0.0039062
        k(  310) = (  -0.4561864  -0.6034980  -0.2225009), wk =   0.0039062
        k(  311) = (  -0.4606106  -0.6114346  -0.1409227), wk =   0.0039062
        k(  312) = (  -0.4650348  -0.6193712  -0.0593445), wk =   0.0039062
        k(  313) = (  -0.4773336  -0.4714942   0.0149171), wk =   0.0039062
        k(  314) = (  -0.4817578  -0.4794308   0.0964953), wk =   0.0039062
        k(  315) = (  -0.4861820  -0.4873674   0.1780735), wk =   0.0039062
        k(  316) = (  -0.4906062  -0.4953040   0.2596517), wk =   0.0039062
        k(  317) = (  -0.4596367  -0.4397479  -0.3113958), wk =   0.0039062
        k(  318) = (  -0.4640609  -0.4476845  -0.2298176), wk =   0.0039062
        k(  319) = (  -0.4684851  -0.4556210  -0.1482393), wk =   0.0039062
        k(  320) = (  -0.4729093  -0.4635576  -0.0666611), wk =   0.0039062
        k(  321) = (  -0.3639061  -0.2367605   0.0057003), wk =   0.0039062
        k(  322) = (  -0.3683303  -0.2446971   0.0872786), wk =   0.0039062
        k(  323) = (  -0.3727545  -0.2526337   0.1688568), wk =   0.0039062
        k(  324) = (  -0.3771787  -0.2605703   0.2504350), wk =   0.0039062
        k(  325) = (  -0.3462092  -0.2050141  -0.3206125), wk =   0.0039062
        k(  326) = (  -0.3506334  -0.2129507  -0.2390343), wk =   0.0039062
        k(  327) = (  -0.3550576  -0.2208873  -0.1574561), wk =   0.0039062
        k(  328) = (  -0.3594818  -0.2288239  -0.0758779), wk =   0.0039062
        k(  329) = (  -0.3717806  -0.0809469  -0.0016163), wk =   0.0039062
        k(  330) = (  -0.3762048  -0.0888835   0.0799619), wk =   0.0039062
        k(  331) = (  -0.3806290  -0.0968201   0.1615402), wk =   0.0039062
        k(  332) = (  -0.3850532  -0.1047567   0.2431184), wk =   0.0039062
        k(  333) = (  -0.3540837  -0.0492006  -0.3279292), wk =   0.0039062
        k(  334) = (  -0.3585079  -0.0571371  -0.2463509), wk =   0.0039062
        k(  335) = (  -0.3629321  -0.0650737  -0.1647727), wk =   0.0039062
        k(  336) = (  -0.3673564  -0.0730103  -0.0831945), wk =   0.0039062
        k(  337) = (  -0.3796551   0.0748667  -0.0089329), wk =   0.0039062
        k(  338) = (  -0.3840793   0.0669301   0.0726453), wk =   0.0039062
        k(  339) = (  -0.3885035   0.0589935   0.1542235), wk =   0.0039062
        k(  340) = (  -0.3929277   0.0510569   0.2358018), wk =   0.0039062
        k(  341) = (  -0.3619582   0.1066130  -0.3352458), wk =   0.0039062
        k(  342) = (  -0.3663824   0.0986764  -0.2536676), wk =   0.0039062
        k(  343) = (  -0.3708066   0.0907398  -0.1720893), wk =   0.0039062
        k(  344) = (  -0.3752309   0.0828033  -0.0905111), wk =   0.0039062
        k(  345) = (  -0.3875296   0.2306802  -0.0162495), wk =   0.0039062
        k(  346) = (  -0.3919538   0.2227437   0.0653287), wk =   0.0039062
        k(  347) = (  -0.3963780   0.2148071   0.1469069), wk =   0.0039062
        k(  348) = (  -0.4008022   0.2068705   0.2284851), wk =   0.0039062
        k(  349) = (  -0.3698327   0.2624266  -0.3425624), wk =   0.0039062
        k(  350) = (  -0.3742569   0.2544900  -0.2609842), wk =   0.0039062
        k(  351) = (  -0.3786812   0.2465534  -0.1794060), wk =   0.0039062
        k(  352) = (  -0.3831054   0.2386168  -0.0978277), wk =   0.0039062
        k(  353) = (  -0.3324080  -0.8600148   0.0349668), wk =   0.0039062
        k(  354) = (  -0.3368322  -0.8679514   0.1165451), wk =   0.0039062
        k(  355) = (  -0.3412564  -0.8758880   0.1981233), wk =   0.0039062
        k(  356) = (  -0.3456806  -0.8838246   0.2797015), wk =   0.0039062
        k(  357) = (  -0.3147111  -0.8282684  -0.2913460), wk =   0.0039062
        k(  358) = (  -0.3191353  -0.8362050  -0.2097678), wk =   0.0039062
        k(  359) = (  -0.3235596  -0.8441416  -0.1281896), wk =   0.0039062
        k(  360) = (  -0.3279838  -0.8520782  -0.0466114), wk =   0.0039062
        k(  361) = (  -0.3402825  -0.7042012   0.0276502), wk =   0.0039062
        k(  362) = (  -0.3447067  -0.7121378   0.1092284), wk =   0.0039062
        k(  363) = (  -0.3491309  -0.7200744   0.1908067), wk =   0.0039062
        k(  364) = (  -0.3535552  -0.7280110   0.2723849), wk =   0.0039062
        k(  365) = (  -0.3225856  -0.6724549  -0.2986627), wk =   0.0039062
        k(  366) = (  -0.3270099  -0.6803914  -0.2170844), wk =   0.0039062
        k(  367) = (  -0.3314341  -0.6883280  -0.1355062), wk =   0.0039062
        k(  368) = (  -0.3358583  -0.6962646  -0.0539280), wk =   0.0039062
        k(  369) = (  -0.3481570  -0.5483876   0.0203336), wk =   0.0039062
        k(  370) = (  -0.3525812  -0.5563242   0.1019118), wk =   0.0039062
        k(  371) = (  -0.3570055  -0.5642608   0.1834900), wk =   0.0039062
        k(  372) = (  -0.3614297  -0.5721974   0.2650683), wk =   0.0039062
        k(  373) = (  -0.3304602  -0.5166413  -0.3059793), wk =   0.0039062
        k(  374) = (  -0.3348844  -0.5245779  -0.2244011), wk =   0.0039062
        k(  375) = (  -0.3393086  -0.5325145  -0.1428228), wk =   0.0039062
        k(  376) = (  -0.3437328  -0.5404511  -0.0612446), wk =   0.0039062
        k(  377) = (  -0.3560315  -0.3925741   0.0130170), wk =   0.0039062
        k(  378) = (  -0.3604558  -0.4005107   0.0945952), wk =   0.0039062
        k(  379) = (  -0.3648800  -0.4084472   0.1761734), wk =   0.0039062
        k(  380) = (  -0.3693042  -0.4163838   0.2577516), wk =   0.0039062
        k(  381) = (  -0.3383347  -0.3608277  -0.3132959), wk =   0.0039062
        k(  382) = (  -0.3427589  -0.3687643  -0.2317177), wk =   0.0039062
        k(  383) = (  -0.3471831  -0.3767009  -0.1501395), wk =   0.0039062
        k(  384) = (  -0.3516073  -0.3846375  -0.0685612), wk =   0.0039062
        k(  385) = (  -0.2426040  -0.1578403   0.0038002), wk =   0.0039062
        k(  386) = (  -0.2470283  -0.1657769   0.0853785), wk =   0.0039062
        k(  387) = (  -0.2514525  -0.1737135   0.1669567), wk =   0.0039062
        k(  388) = (  -0.2558767  -0.1816501   0.2485349), wk =   0.0039062
        k(  389) = (  -0.2249072  -0.1260940  -0.3225126), wk =   0.0039062
        k(  390) = (  -0.2293314  -0.1340306  -0.2409344), wk =   0.0039062
        k(  391) = (  -0.2337556  -0.1419671  -0.1593562), wk =   0.0039062
        k(  392) = (  -0.2381798  -0.1499037  -0.0777780), wk =   0.0039062
        k(  393) = (  -0.2504785  -0.0020267  -0.0035164), wk =   0.0039062
        k(  394) = (  -0.2549028  -0.0099633   0.0780618), wk =   0.0039062
        k(  395) = (  -0.2593270  -0.0178999   0.1596400), wk =   0.0039062
        k(  396) = (  -0.2637512  -0.0258365   0.2412183), wk =   0.0039062
        k(  397) = (  -0.2327817   0.0297196  -0.3298293), wk =   0.0039062
        k(  398) = (  -0.2372059   0.0217830  -0.2482511), wk =   0.0039062
        k(  399) = (  -0.2416301   0.0138464  -0.1666728), wk =   0.0039062
        k(  400) = (  -0.2460543   0.0059098  -0.0850946), wk =   0.0039062
        k(  401) = (  -0.2583531   0.1537868  -0.0108330), wk =   0.0039062
        k(  402) = (  -0.2627773   0.1458502   0.0707452), wk =   0.0039062
        k(  403) = (  -0.2672015   0.1379137   0.1523234), wk =   0.0039062
        k(  404) = (  -0.2716257   0.1299771   0.2339016), wk =   0.0039062
        k(  405) = (  -0.2406562   0.1855332  -0.3371459), wk =   0.0039062
        k(  406) = (  -0.2450804   0.1775966  -0.2555677), wk =   0.0039062
        k(  407) = (  -0.2495046   0.1696600  -0.1739895), wk =   0.0039062
        k(  408) = (  -0.2539288   0.1617234  -0.0924112), wk =   0.0039062
        k(  409) = (  -0.2662276   0.3096004  -0.0181496), wk =   0.0039062
        k(  410) = (  -0.2706518   0.3016638   0.0634286), wk =   0.0039062
        k(  411) = (  -0.2750760   0.2937272   0.1450068), wk =   0.0039062
        k(  412) = (  -0.2795002   0.2857906   0.2265850), wk =   0.0039062
        k(  413) = (  -0.2485307   0.3413468  -0.3444625), wk =   0.0039062
        k(  414) = (  -0.2529549   0.3334102  -0.2628843), wk =   0.0039062
        k(  415) = (  -0.2573791   0.3254736  -0.1813061), wk =   0.0039062
        k(  416) = (  -0.2618034   0.3175370  -0.0997279), wk =   0.0039062
        k(  417) = (  -0.2111060  -0.7810946   0.0330667), wk =   0.0039062
        k(  418) = (  -0.2155302  -0.7890312   0.1146450), wk =   0.0039062
        k(  419) = (  -0.2199544  -0.7969678   0.1962232), wk =   0.0039062
        k(  420) = (  -0.2243786  -0.8049044   0.2778014), wk =   0.0039062
        k(  421) = (  -0.1934091  -0.7493483  -0.2932461), wk =   0.0039062
        k(  422) = (  -0.1978333  -0.7572849  -0.2116679), wk =   0.0039062
        k(  423) = (  -0.2022575  -0.7652215  -0.1300897), wk =   0.0039062
        k(  424) = (  -0.2066818  -0.7731580  -0.0485115), wk =   0.0039062
        k(  425) = (  -0.2189805  -0.6252811   0.0257501), wk =   0.0039062
        k(  426) = (  -0.2234047  -0.6332176   0.1073283), wk =   0.0039062
        k(  427) = (  -0.2278289  -0.6411542   0.1889065), wk =   0.0039062
        k(  428) = (  -0.2322531  -0.6490908   0.2704848), wk =   0.0039062
        k(  429) = (  -0.2012836  -0.5935347  -0.3005628), wk =   0.0039062
        k(  430) = (  -0.2057078  -0.6014713  -0.2189846), wk =   0.0039062
        k(  431) = (  -0.2101321  -0.6094079  -0.1374063), wk =   0.0039062
        k(  432) = (  -0.2145563  -0.6173445  -0.0558281), wk =   0.0039062
        k(  433) = (  -0.2268550  -0.4694675   0.0184335), wk =   0.0039062
        k(  434) = (  -0.2312792  -0.4774041   0.1000117), wk =   0.0039062
        k(  435) = (  -0.2357034  -0.4853407   0.1815899), wk =   0.0039062
        k(  436) = (  -0.2401277  -0.4932772   0.2631681), wk =   0.0039062
        k(  437) = (  -0.2091581  -0.4377211  -0.3078794), wk =   0.0039062
        k(  438) = (  -0.2135824  -0.4456577  -0.2263012), wk =   0.0039062
        k(  439) = (  -0.2180066  -0.4535943  -0.1447230), wk =   0.0039062
        k(  440) = (  -0.2224308  -0.4615309  -0.0631447), wk =   0.0039062
        k(  441) = (  -0.2347295  -0.3136539   0.0111169), wk =   0.0039062
        k(  442) = (  -0.2391537  -0.3215905   0.0926951), wk =   0.0039062
        k(  443) = (  -0.2435780  -0.3295271   0.1742733), wk =   0.0039062
        k(  444) = (  -0.2480022  -0.3374637   0.2558515), wk =   0.0039062
        k(  445) = (  -0.2170327  -0.2819075  -0.3151960), wk =   0.0039062
        k(  446) = (  -0.2214569  -0.2898441  -0.2336178), wk =   0.0039062
        k(  447) = (  -0.2258811  -0.2977807  -0.1520396), wk =   0.0039062
        k(  448) = (  -0.2303053  -0.3057173  -0.0704614), wk =   0.0039062
        k(  449) = (  -0.1213020  -0.0789202   0.0019001), wk =   0.0039062
        k(  450) = (  -0.1257262  -0.0868568   0.0834783), wk =   0.0039062
        k(  451) = (  -0.1301504  -0.0947933   0.1650566), wk =   0.0039062
        k(  452) = (  -0.1345747  -0.1027299   0.2466348), wk =   0.0039062
        k(  453) = (  -0.1036052  -0.0471738  -0.3244128), wk =   0.0039062
        k(  454) = (  -0.1080294  -0.0551104  -0.2428345), wk =   0.0039062
        k(  455) = (  -0.1124536  -0.0630470  -0.1612563), wk =   0.0039062
        k(  456) = (  -0.1168778  -0.0709836  -0.0796781), wk =   0.0039062
        k(  457) = (  -0.1291765   0.0768934  -0.0054165), wk =   0.0039062
        k(  458) = (  -0.1336007   0.0689568   0.0761617), wk =   0.0039062
        k(  459) = (  -0.1380250   0.0610202   0.1577399), wk =   0.0039062
        k(  460) = (  -0.1424492   0.0530836   0.2393181), wk =   0.0039062
        k(  461) = (  -0.1114797   0.1086398  -0.3317294), wk =   0.0039062
        k(  462) = (  -0.1159039   0.1007032  -0.2501512), wk =   0.0039062
        k(  463) = (  -0.1203281   0.0927666  -0.1685729), wk =   0.0039062
        k(  464) = (  -0.1247523   0.0848300  -0.0869947), wk =   0.0039062
        k(  465) = (  -0.1370510   0.2327070  -0.0127331), wk =   0.0039062
        k(  466) = (  -0.1414753   0.2247704   0.0688451), wk =   0.0039062
        k(  467) = (  -0.1458995   0.2168338   0.1504233), wk =   0.0039062
        k(  468) = (  -0.1503237   0.2088972   0.2320015), wk =   0.0039062
        k(  469) = (  -0.1193542   0.2644533  -0.3390460), wk =   0.0039062
        k(  470) = (  -0.1237784   0.2565168  -0.2574678), wk =   0.0039062
        k(  471) = (  -0.1282026   0.2485802  -0.1758896), wk =   0.0039062
        k(  472) = (  -0.1326268   0.2406436  -0.0943114), wk =   0.0039062
        k(  473) = (  -0.1449256   0.3885206  -0.0200498), wk =   0.0039062
        k(  474) = (  -0.1493498   0.3805840   0.0615285), wk =   0.0039062
        k(  475) = (  -0.1537740   0.3726474   0.1431067), wk =   0.0039062
        k(  476) = (  -0.1581982   0.3647108   0.2246849), wk =   0.0039062
        k(  477) = (  -0.1272287   0.4202669  -0.3463626), wk =   0.0039062
        k(  478) = (  -0.1316529   0.4123303  -0.2647844), wk =   0.0039062
        k(  479) = (  -0.1360771   0.4043937  -0.1832062), wk =   0.0039062
        k(  480) = (  -0.1405013   0.3964572  -0.1016280), wk =   0.0039062
        k(  481) = (  -0.0898040  -0.7021745   0.0311666), wk =   0.0039062
        k(  482) = (  -0.0942282  -0.7101111   0.1127448), wk =   0.0039062
        k(  483) = (  -0.0986524  -0.7180476   0.1943231), wk =   0.0039062
        k(  484) = (  -0.1030766  -0.7259842   0.2759013), wk =   0.0039062
        k(  485) = (  -0.0721071  -0.6704281  -0.2951463), wk =   0.0039062
        k(  486) = (  -0.0765313  -0.6783647  -0.2135680), wk =   0.0039062
        k(  487) = (  -0.0809555  -0.6863013  -0.1319898), wk =   0.0039062
        k(  488) = (  -0.0853797  -0.6942379  -0.0504116), wk =   0.0039062
        k(  489) = (  -0.0976785  -0.5463609   0.0238500), wk =   0.0039062
        k(  490) = (  -0.1021027  -0.5542975   0.1054282), wk =   0.0039062
        k(  491) = (  -0.1065269  -0.5622341   0.1870064), wk =   0.0039062
        k(  492) = (  -0.1109511  -0.5701707   0.2685846), wk =   0.0039062
        k(  493) = (  -0.0799816  -0.5146145  -0.3024629), wk =   0.0039062
        k(  494) = (  -0.0844058  -0.5225511  -0.2208847), wk =   0.0039062
        k(  495) = (  -0.0888300  -0.5304877  -0.1393064), wk =   0.0039062
        k(  496) = (  -0.0932543  -0.5384243  -0.0577282), wk =   0.0039062
        k(  497) = (  -0.1055530  -0.3905473   0.0165334), wk =   0.0039062
        k(  498) = (  -0.1099772  -0.3984839   0.0981116), wk =   0.0039062
        k(  499) = (  -0.1144014  -0.4064205   0.1796898), wk =   0.0039062
        k(  500) = (  -0.1188256  -0.4143571   0.2612680), wk =   0.0039062
        k(  501) = (  -0.0878561  -0.3588010  -0.3097795), wk =   0.0039062
        k(  502) = (  -0.0922803  -0.3667375  -0.2282013), wk =   0.0039062
        k(  503) = (  -0.0967046  -0.3746741  -0.1466231), wk =   0.0039062
        k(  504) = (  -0.1011288  -0.3826107  -0.0650449), wk =   0.0039062
        k(  505) = (  -0.1134275  -0.2347337   0.0092167), wk =   0.0039062
        k(  506) = (  -0.1178517  -0.2426703   0.0907950), wk =   0.0039062
        k(  507) = (  -0.1222759  -0.2506069   0.1723732), wk =   0.0039062
        k(  508) = (  -0.1267002  -0.2585435   0.2539514), wk =   0.0039062
        k(  509) = (  -0.0957306  -0.2029874  -0.3170961), wk =   0.0039062
        k(  510) = (  -0.1001549  -0.2109240  -0.2355179), wk =   0.0039062
        k(  511) = (  -0.1045791  -0.2188606  -0.1539397), wk =   0.0039062
        k(  512) = (  -0.1090033  -0.2267971  -0.0723615), wk =   0.0039062

                       cryst. coord.
        k(    1) = (   0.0000000   0.0000000   0.0000000), wk =   0.0039062
        k(    2) = (   0.0000000   0.0000000   0.1250000), wk =   0.0039062
        k(    3) = (   0.0000000   0.0000000   0.2500000), wk =   0.0039062
        k(    4) = (   0.0000000   0.0000000   0.3750000), wk =   0.0039062
        k(    5) = (   0.0000000   0.0000000  -0.5000000), wk =   0.0039062
        k(    6) = (   0.0000000   0.0000000  -0.3750000), wk =   0.0039062
        k(    7) = (   0.0000000   0.0000000  -0.2500000), wk =   0.0039062
        k(    8) = (   0.0000000   0.0000000  -0.1250000), wk =   0.0039062
        k(    9) = (  -0.0000000   0.1250000  -0.0000000), wk =   0.0039062
        k(   10) = (  -0.0000000   0.1250000   0.1250000), wk =   0.0039062
        k(   11) = (   0.0000000   0.1250000   0.2500000), wk =   0.0039062
        k(   12) = (  -0.0000000   0.1250000   0.3750000), wk =   0.0039062
        k(   13) = (  -0.0000000   0.1250000  -0.5000000), wk =   0.0039062
        k(   14) = (   0.0000000   0.1250000  -0.3750000), wk =   0.0039062
        k(   15) = (   0.0000000   0.1250000  -0.2500000), wk =   0.0039062
        k(   16) = (  -0.0000000   0.1250000  -0.1250000), wk =   0.0039062
        k(   17) = (  -0.0000000   0.2500000  -0.0000000), wk =   0.0039062
        k(   18) = (  -0.0000000   0.2500000   0.1250000), wk =   0.0039062
        k(   19) = (  -0.0000000   0.2500000   0.2500000), wk =   0.0039062
        k(   20) = (  -0.0000000   0.2500000   0.3750000), wk =   0.0039062
        k(   21) = (   0.0000000   0.2500000  -0.5000000), wk =   0.0039062
        k(   22) = (  -0.0000000   0.2500000  -0.3750000), wk =   0.0039062
        k(   23) = (  -0.0000000   0.2500000  -0.2500000), wk =   0.0039062
        k(   24) = (  -0.0000000   0.2500000  -0.1250000), wk =   0.0039062
        k(   25) = (  -0.0000000   0.3750000  -0.0000000), wk =   0.0039062
        k(   26) = (  -0.0000000   0.3750000   0.1250000), wk =   0.0039062
        k(   27) = (  -0.0000000   0.3750000   0.2500000), wk =   0.0039062
        k(   28) = (  -0.0000000   0.3750000   0.3750000), wk =   0.0039062
        k(   29) = (  -0.0000000   0.3750000  -0.5000000), wk =   0.0039062
        k(   30) = (  -0.0000000   0.3750000  -0.3750000), wk =   0.0039062
        k(   31) = (  -0.0000000   0.3750000  -0.2500000), wk =   0.0039062
        k(   32) = (  -0.0000000   0.3750000  -0.1250000), wk =   0.0039062
        k(   33) = (   0.0000000  -0.5000000   0.0000000), wk =   0.0039062
        k(   34) = (   0.0000000  -0.5000000   0.1250000), wk =   0.0039062
        k(   35) = (   0.0000000  -0.5000000   0.2500000), wk =   0.0039062
        k(   36) = (   0.0000000  -0.5000000   0.3750000), wk =   0.0039062
        k(   37) = (   0.0000000  -0.5000000  -0.5000000), wk =   0.0039062
        k(   38) = (   0.0000000  -0.5000000  -0.3750000), wk =   0.0039062
        k(   39) = (   0.0000000  -0.5000000  -0.2500000), wk =   0.0039062
        k(   40) = (   0.0000000  -0.5000000  -0.1250000), wk =   0.0039062
        k(   41) = (   0.0000000  -0.3750000   0.0000000), wk =   0.0039062
        k(   42) = (   0.0000000  -0.3750000   0.1250000), wk =   0.0039062
        k(   43) = (   0.0000000  -0.3750000   0.2500000), wk =   0.0039062
        k(   44) = (   0.0000000  -0.3750000   0.3750000), wk =   0.0039062
        k(   45) = (   0.0000000  -0.3750000  -0.5000000), wk =   0.0039062
        k(   46) = (   0.0000000  -0.3750000  -0.3750000), wk =   0.0039062
        k(   47) = (   0.0000000  -0.3750000  -0.2500000), wk =   0.0039062
        k(   48) = (   0.0000000  -0.3750000  -0.1250000), wk =   0.0039062
        k(   49) = (   0.0000000  -0.2500000   0.0000000), wk =   0.0039062
        k(   50) = (   0.0000000  -0.2500000   0.1250000), wk =   0.0039062
        k(   51) = (   0.0000000  -0.2500000   0.2500000), wk =   0.0039062
        k(   52) = (   0.0000000  -0.2500000   0.3750000), wk =   0.0039062
        k(   53) = (   0.0000000  -0.2500000  -0.5000000), wk =   0.0039062
        k(   54) = (   0.0000000  -0.2500000  -0.3750000), wk =   0.0039062
        k(   55) = (   0.0000000  -0.2500000  -0.2500000), wk =   0.0039062
        k(   56) = (   0.0000000  -0.2500000  -0.1250000), wk =   0.0039062
        k(   57) = (   0.0000000  -0.1250000   0.0000000), wk =   0.0039062
        k(   58) = (   0.0000000  -0.1250000   0.1250000), wk =   0.0039062
        k(   59) = (   0.0000000  -0.1250000   0.2500000), wk =   0.0039062
        k(   60) = (   0.0000000  -0.1250000   0.3750000), wk =   0.0039062
        k(   61) = (   0.0000000  -0.1250000  -0.5000000), wk =   0.0039062
        k(   62) = (   0.0000000  -0.1250000  -0.3750000), wk =   0.0039062
        k(   63) = (   0.0000000  -0.1250000  -0.2500000), wk =   0.0039062
        k(   64) = (   0.0000000  -0.1250000  -0.1250000), wk =   0.0039062
        k(   65) = (   0.1250000  -0.0000000  -0.0000000), wk =   0.0039062
        k(   66) = (   0.1250000  -0.0000000   0.1250000), wk =   0.0039062
        k(   67) = (   0.1250000   0.0000000   0.2500000), wk =   0.0039062
        k(   68) = (   0.1250000  -0.0000000   0.3750000), wk =   0.0039062
        k(   69) = (   0.1250000  -0.0000000  -0.5000000), wk =   0.0039062
        k(   70) = (   0.1250000  -0.0000000  -0.3750000), wk =   0.0039062
        k(   71) = (   0.1250000  -0.0000000  -0.2500000), wk =   0.0039062
        k(   72) = (   0.1250000  -0.0000000  -0.1250000), wk =   0.0039062
        k(   73) = (   0.1250000   0.1250000  -0.0000000), wk =   0.0039062
        k(   74) = (   0.1250000   0.1250000   0.1250000), wk =   0.0039062
        k(   75) = (   0.1250000   0.1250000   0.2500000), wk =   0.0039062
        k(   76) = (   0.1250000   0.1250000   0.3750000), wk =   0.0039062
        k(   77) = (   0.1250000   0.1250000  -0.5000000), wk =   0.0039062
        k(   78) = (   0.1250000   0.1250000  -0.3750000), wk =   0.0039062
        k(   79) = (   0.1250000   0.1250000  -0.2500000), wk =   0.0039062
        k(   80) = (   0.1250000   0.1250000  -0.1250000), wk =   0.0039062
        k(   81) = (   0.1250000   0.2500000  -0.0000000), wk =   0.0039062
        k(   82) = (   0.1250000   0.2500000   0.1250000), wk =   0.0039062
        k(   83) = (   0.1250000   0.2500000   0.2500000), wk =   0.0039062
        k(   84) = (   0.1250000   0.2500000   0.3750000), wk =   0.0039062
        k(   85) = (   0.1250000   0.2500000  -0.5000000), wk =   0.0039062
        k(   86) = (   0.1250000   0.2500000  -0.3750000), wk =   0.0039062
        k(   87) = (   0.1250000   0.2500000  -0.2500000), wk =   0.0039062
        k(   88) = (   0.1250000   0.2500000  -0.1250000), wk =   0.0039062
        k(   89) = (   0.1250000   0.3750000  -0.0000000), wk =   0.0039062
        k(   90) = (   0.1250000   0.3750000   0.1250000), wk =   0.0039062
        k(   91) = (   0.1250000   0.3750000   0.2500000), wk =   0.0039062
        k(   92) = (   0.1250000   0.3750000   0.3750000), wk =   0.0039062
        k(   93) = (   0.1250000   0.3750000  -0.5000000), wk =   0.0039062
        k(   94) = (   0.1250000   0.3750000  -0.3750000), wk =   0.0039062
        k(   95) = (   0.1250000   0.3750000  -0.2500000), wk =   0.0039062
        k(   96) = (   0.1250000   0.3750000  -0.1250000), wk =   0.0039062
        k(   97) = (   0.1250000  -0.5000000   0.0000000), wk =   0.0039062
        k(   98) = (   0.1250000  -0.5000000   0.1250000), wk =   0.0039062
        k(   99) = (   0.1250000  -0.5000000   0.2500000), wk =   0.0039062
        k(  100) = (   0.1250000  -0.5000000   0.3750000), wk =   0.0039062
        k(  101) = (   0.1250000  -0.5000000  -0.5000000), wk =   0.0039062
        k(  102) = (   0.1250000  -0.5000000  -0.3750000), wk =   0.0039062
        k(  103) = (   0.1250000  -0.5000000  -0.2500000), wk =   0.0039062
        k(  104) = (   0.1250000  -0.5000000  -0.1250000), wk =   0.0039062
        k(  105) = (   0.1250000  -0.3750000   0.0000000), wk =   0.0039062
        k(  106) = (   0.1250000  -0.3750000   0.1250000), wk =   0.0039062
        k(  107) = (   0.1250000  -0.3750000   0.2500000), wk =   0.0039062
        k(  108) = (   0.1250000  -0.3750000   0.3750000), wk =   0.0039062
        k(  109) = (   0.1250000  -0.3750000  -0.5000000), wk =   0.0039062
        k(  110) = (   0.1250000  -0.3750000  -0.3750000), wk =   0.0039062
        k(  111) = (   0.1250000  -0.3750000  -0.2500000), wk =   0.0039062
        k(  112) = (   0.1250000  -0.3750000  -0.1250000), wk =   0.0039062
        k(  113) = (   0.1250000  -0.2500000   0.0000000), wk =   0.0039062
        k(  114) = (   0.1250000  -0.2500000   0.1250000), wk =   0.0039062
        k(  115) = (   0.1250000  -0.2500000   0.2500000), wk =   0.0039062
        k(  116) = (   0.1250000  -0.2500000   0.3750000), wk =   0.0039062
        k(  117) = (   0.1250000  -0.2500000  -0.5000000), wk =   0.0039062
        k(  118) = (   0.1250000  -0.2500000  -0.3750000), wk =   0.0039062
        k(  119) = (   0.1250000  -0.2500000  -0.2500000), wk =   0.0039062
        k(  120) = (   0.1250000  -0.2500000  -0.1250000), wk =   0.0039062
        k(  121) = (   0.1250000  -0.1250000   0.0000000), wk =   0.0039062
        k(  122) = (   0.1250000  -0.1250000   0.1250000), wk =   0.0039062
        k(  123) = (   0.1250000  -0.1250000   0.2500000), wk =   0.0039062
        k(  124) = (   0.1250000  -0.1250000   0.3750000), wk =   0.0039062
        k(  125) = (   0.1250000  -0.1250000  -0.5000000), wk =   0.0039062
        k(  126) = (   0.1250000  -0.1250000  -0.3750000), wk =   0.0039062
        k(  127) = (   0.1250000  -0.1250000  -0.2500000), wk =   0.0039062
        k(  128) = (   0.1250000  -0.1250000  -0.1250000), wk =   0.0039062
        k(  129) = (   0.2500000  -0.0000000  -0.0000000), wk =   0.0039062
        k(  130) = (   0.2500000  -0.0000000   0.1250000), wk =   0.0039062
        k(  131) = (   0.2500000  -0.0000000   0.2500000), wk =   0.0039062
        k(  132) = (   0.2500000  -0.0000000   0.3750000), wk =   0.0039062
        k(  133) = (   0.2500000  -0.0000000  -0.5000000), wk =   0.0039062
        k(  134) = (   0.2500000  -0.0000000  -0.3750000), wk =   0.0039062
        k(  135) = (   0.2500000  -0.0000000  -0.2500000), wk =   0.0039062
        k(  136) = (   0.2500000  -0.0000000  -0.1250000), wk =   0.0039062
        k(  137) = (   0.2500000   0.1250000  -0.0000000), wk =   0.0039062
        k(  138) = (   0.2500000   0.1250000   0.1250000), wk =   0.0039062
        k(  139) = (   0.2500000   0.1250000   0.2500000), wk =   0.0039062
        k(  140) = (   0.2500000   0.1250000   0.3750000), wk =   0.0039062
        k(  141) = (   0.2500000   0.1250000  -0.5000000), wk =   0.0039062
        k(  142) = (   0.2500000   0.1250000  -0.3750000), wk =   0.0039062
        k(  143) = (   0.2500000   0.1250000  -0.2500000), wk =   0.0039062
        k(  144) = (   0.2500000   0.1250000  -0.1250000), wk =   0.0039062
        k(  145) = (   0.2500000   0.2500000  -0.0000000), wk =   0.0039062
        k(  146) = (   0.2500000   0.2500000   0.1250000), wk =   0.0039062
        k(  147) = (   0.2500000   0.2500000   0.2500000), wk =   0.0039062
        k(  148) = (   0.2500000   0.2500000   0.3750000), wk =   0.0039062
        k(  149) = (   0.2500000   0.2500000  -0.5000000), wk =   0.0039062
        k(  150) = (   0.2500000   0.2500000  -0.3750000), wk =   0.0039062
        k(  151) = (   0.2500000   0.2500000  -0.2500000), wk =   0.0039062
        k(  152) = (   0.2500000   0.2500000  -0.1250000), wk =   0.0039062
        k(  153) = (   0.2500000   0.3750000  -0.0000000), wk =   0.0039062
        k(  154) = (   0.2500000   0.3750000   0.1250000), wk =   0.0039062
        k(  155) = (   0.2500000   0.3750000   0.2500000), wk =   0.0039062
        k(  156) = (   0.2500000   0.3750000   0.3750000), wk =   0.0039062
        k(  157) = (   0.2500000   0.3750000  -0.5000000), wk =   0.0039062
        k(  158) = (   0.2500000   0.3750000  -0.3750000), wk =   0.0039062
        k(  159) = (   0.2500000   0.3750000  -0.2500000), wk =   0.0039062
        k(  160) = (   0.2500000   0.3750000  -0.1250000), wk =   0.0039062
        k(  161) = (   0.2500000  -0.5000000   0.0000000), wk =   0.0039062
        k(  162) = (   0.2500000  -0.5000000   0.1250000), wk =   0.0039062
        k(  163) = (   0.2500000  -0.5000000   0.2500000), wk =   0.0039062
        k(  164) = (   0.2500000  -0.5000000   0.3750000), wk =   0.0039062
        k(  165) = (   0.2500000  -0.5000000  -0.5000000), wk =   0.0039062
        k(  166) = (   0.2500000  -0.5000000  -0.3750000), wk =   0.0039062
        k(  167) = (   0.2500000  -0.5000000  -0.2500000), wk =   0.0039062
        k(  168) = (   0.2500000  -0.5000000  -0.1250000), wk =   0.0039062
        k(  169) = (   0.2500000  -0.3750000   0.0000000), wk =   0.0039062
        k(  170) = (   0.2500000  -0.3750000   0.1250000), wk =   0.0039062
        k(  171) = (   0.2500000  -0.3750000   0.2500000), wk =   0.0039062
        k(  172) = (   0.2500000  -0.3750000   0.3750000), wk =   0.0039062
        k(  173) = (   0.2500000  -0.3750000  -0.5000000), wk =   0.0039062
        k(  174) = (   0.2500000  -0.3750000  -0.3750000), wk =   0.0039062
        k(  175) = (   0.2500000  -0.3750000  -0.2500000), wk =   0.0039062
        k(  176) = (   0.2500000  -0.3750000  -0.1250000), wk =   0.0039062
        k(  177) = (   0.2500000  -0.2500000   0.0000000), wk =   0.0039062
        k(  178) = (   0.2500000  -0.2500000   0.1250000), wk =   0.0039062
        k(  179) = (   0.2500000  -0.2500000   0.2500000), wk =   0.0039062
        k(  180) = (   0.2500000  -0.2500000   0.3750000), wk =   0.0039062
        k(  181) = (   0.2500000  -0.2500000  -0.5000000), wk =   0.0039062
        k(  182) = (   0.2500000  -0.2500000  -0.3750000), wk =   0.0039062
        k(  183) = (   0.2500000  -0.2500000  -0.2500000), wk =   0.0039062
        k(  184) = (   0.2500000  -0.2500000  -0.1250000), wk =   0.0039062
        k(  185) = (   0.2500000  -0.1250000  -0.0000000), wk =   0.0039062
        k(  186) = (   0.2500000  -0.1250000   0.1250000), wk =   0.0039062
        k(  187) = (   0.2500000  -0.1250000   0.2500000), wk =   0.0039062
        k(  188) = (   0.2500000  -0.1250000   0.3750000), wk =   0.0039062
        k(  189) = (   0.2500000  -0.1250000  -0.5000000), wk =   0.0039062
        k(  190) = (   0.2500000  -0.1250000  -0.3750000), wk =   0.0039062
        k(  191) = (   0.2500000  -0.1250000  -0.2500000), wk =   0.0039062
        k(  192) = (   0.2500000  -0.1250000  -0.1250000), wk =   0.0039062
        k(  193) = (   0.3750000  -0.0000000  -0.0000000), wk =   0.0039062
        k(  194) = (   0.3750000  -0.0000000   0.1250000), wk =   0.0039062
        k(  195) = (   0.3750000  -0.0000000   0.2500000), wk =   0.0039062
        k(  196) = (   0.3750000  -0.0000000   0.3750000), wk =   0.0039062
        k(  197) = (   0.3750000  -0.0000000  -0.5000000), wk =   0.0039062
        k(  198) = (   0.3750000  -0.0000000  -0.3750000), wk =   0.0039062
        k(  199) = (   0.3750000  -0.0000000  -0.2500000), wk =   0.0039062
        k(  200) = (   0.3750000  -0.0000000  -0.1250000), wk =   0.0039062
        k(  201) = (   0.3750000   0.1250000  -0.0000000), wk =   0.0039062
        k(  202) = (   0.3750000   0.1250000   0.1250000), wk =   0.0039062
        k(  203) = (   0.3750000   0.1250000   0.2500000), wk =   0.0039062
        k(  204) = (   0.3750000   0.1250000   0.3750000), wk =   0.0039062
        k(  205) = (   0.3750000   0.1250000  -0.5000000), wk =   0.0039062
        k(  206) = (   0.3750000   0.1250000  -0.3750000), wk =   0.0039062
        k(  207) = (   0.3750000   0.1250000  -0.2500000), wk =   0.0039062
        k(  208) = (   0.3750000   0.1250000  -0.1250000), wk =   0.0039062
        k(  209) = (   0.3750000   0.2500000   0.0000000), wk =   0.0039062
        k(  210) = (   0.3750000   0.2500000   0.1250000), wk =   0.0039062
        k(  211) = (   0.3750000   0.2500000   0.2500000), wk =   0.0039062
        k(  212) = (   0.3750000   0.2500000   0.3750000), wk =   0.0039062
        k(  213) = (   0.3750000   0.2500000  -0.5000000), wk =   0.0039062
        k(  214) = (   0.3750000   0.2500000  -0.3750000), wk =   0.0039062
        k(  215) = (   0.3750000   0.2500000  -0.2500000), wk =   0.0039062
        k(  216) = (   0.3750000   0.2500000  -0.1250000), wk =   0.0039062
        k(  217) = (   0.3750000   0.3750000  -0.0000000), wk =   0.0039062
        k(  218) = (   0.3750000   0.3750000   0.1250000), wk =   0.0039062
        k(  219) = (   0.3750000   0.3750000   0.2500000), wk =   0.0039062
        k(  220) = (   0.3750000   0.3750000   0.3750000), wk =   0.0039062
        k(  221) = (   0.3750000   0.3750000  -0.5000000), wk =   0.0039062
        k(  222) = (   0.3750000   0.3750000  -0.3750000), wk =   0.0039062
        k(  223) = (   0.3750000   0.3750000  -0.2500000), wk =   0.0039062
        k(  224) = (   0.3750000   0.3750000  -0.1250000), wk =   0.0039062
        k(  225) = (   0.3750000  -0.5000000   0.0000000), wk =   0.0039062
        k(  226) = (   0.3750000  -0.5000000   0.1250000), wk =   0.0039062
        k(  227) = (   0.3750000  -0.5000000   0.2500000), wk =   0.0039062
        k(  228) = (   0.3750000  -0.5000000   0.3750000), wk =   0.0039062
        k(  229) = (   0.3750000  -0.5000000  -0.5000000), wk =   0.0039062
        k(  230) = (   0.3750000  -0.5000000  -0.3750000), wk =   0.0039062
        k(  231) = (   0.3750000  -0.5000000  -0.2500000), wk =   0.0039062
        k(  232) = (   0.3750000  -0.5000000  -0.1250000), wk =   0.0039062
        k(  233) = (   0.3750000  -0.3750000   0.0000000), wk =   0.0039062
        k(  234) = (   0.3750000  -0.3750000   0.1250000), wk =   0.0039062
        k(  235) = (   0.3750000  -0.3750000   0.2500000), wk =   0.0039062
        k(  236) = (   0.3750000  -0.3750000   0.3750000), wk =   0.0039062
        k(  237) = (   0.3750000  -0.3750000  -0.5000000), wk =   0.0039062
        k(  238) = (   0.3750000  -0.3750000  -0.3750000), wk =   0.0039062
        k(  239) = (   0.3750000  -0.3750000  -0.2500000), wk =   0.0039062
        k(  240) = (   0.3750000  -0.3750000  -0.1250000), wk =   0.0039062
        k(  241) = (   0.3750000  -0.2500000  -0.0000000), wk =   0.0039062
        k(  242) = (   0.3750000  -0.2500000   0.1250000), wk =   0.0039062
        k(  243) = (   0.3750000  -0.2500000   0.2500000), wk =   0.0039062
        k(  244) = (   0.3750000  -0.2500000   0.3750000), wk =   0.0039062
        k(  245) = (   0.3750000  -0.2500000  -0.5000000), wk =   0.0039062
        k(  246) = (   0.3750000  -0.2500000  -0.3750000), wk =   0.0039062
        k(  247) = (   0.3750000  -0.2500000  -0.2500000), wk =   0.0039062
        k(  248) = (   0.3750000  -0.2500000  -0.1250000), wk =   0.0039062
        k(  249) = (   0.3750000  -0.1250000  -0.0000000), wk =   0.0039062
        k(  250) = (   0.3750000  -0.1250000   0.1250000), wk =   0.0039062
        k(  251) = (   0.3750000  -0.1250000   0.2500000), wk =   0.0039062
        k(  252) = (   0.3750000  -0.1250000   0.3750000), wk =   0.0039062
        k(  253) = (   0.3750000  -0.1250000  -0.5000000), wk =   0.0039062
        k(  254) = (   0.3750000  -0.1250000  -0.3750000), wk =   0.0039062
        k(  255) = (   0.3750000  -0.1250000  -0.2500000), wk =   0.0039062
        k(  256) = (   0.3750000  -0.1250000  -0.1250000), wk =   0.0039062
        k(  257) = (  -0.5000000   0.0000000   0.0000000), wk =   0.0039062
        k(  258) = (  -0.5000000   0.0000000   0.1250000), wk =   0.0039062
        k(  259) = (  -0.5000000   0.0000000   0.2500000), wk =   0.0039062
        k(  260) = (  -0.5000000   0.0000000   0.3750000), wk =   0.0039062
        k(  261) = (  -0.5000000   0.0000000  -0.5000000), wk =   0.0039062
        k(  262) = (  -0.5000000   0.0000000  -0.3750000), wk =   0.0039062
        k(  263) = (  -0.5000000   0.0000000  -0.2500000), wk =   0.0039062
        k(  264) = (  -0.5000000   0.0000000  -0.1250000), wk =   0.0039062
        k(  265) = (  -0.5000000   0.1250000   0.0000000), wk =   0.0039062
        k(  266) = (  -0.5000000   0.1250000   0.1250000), wk =   0.0039062
        k(  267) = (  -0.5000000   0.1250000   0.2500000), wk =   0.0039062
        k(  268) = (  -0.5000000   0.1250000   0.3750000), wk =   0.0039062
        k(  269) = (  -0.5000000   0.1250000  -0.5000000), wk =   0.0039062
        k(  270) = (  -0.5000000   0.1250000  -0.3750000), wk =   0.0039062
        k(  271) = (  -0.5000000   0.1250000  -0.2500000), wk =   0.0039062
        k(  272) = (  -0.5000000   0.1250000  -0.1250000), wk =   0.0039062
        k(  273) = (  -0.5000000   0.2500000   0.0000000), wk =   0.0039062
        k(  274) = (  -0.5000000   0.2500000   0.1250000), wk =   0.0039062
        k(  275) = (  -0.5000000   0.2500000   0.2500000), wk =   0.0039062
        k(  276) = (  -0.5000000   0.2500000   0.3750000), wk =   0.0039062
        k(  277) = (  -0.5000000   0.2500000  -0.5000000), wk =   0.0039062
        k(  278) = (  -0.5000000   0.2500000  -0.3750000), wk =   0.0039062
        k(  279) = (  -0.5000000   0.2500000  -0.2500000), wk =   0.0039062
        k(  280) = (  -0.5000000   0.2500000  -0.1250000), wk =   0.0039062
        k(  281) = (  -0.5000000   0.3750000   0.0000000), wk =   0.0039062
        k(  282) = (  -0.5000000   0.3750000   0.1250000), wk =   0.0039062
        k(  283) = (  -0.5000000   0.3750000   0.2500000), wk =   0.0039062
        k(  284) = (  -0.5000000   0.3750000   0.3750000), wk =   0.0039062
        k(  285) = (  -0.5000000   0.3750000  -0.5000000), wk =   0.0039062
        k(  286) = (  -0.5000000   0.3750000  -0.3750000), wk =   0.0039062
        k(  287) = (  -0.5000000   0.3750000  -0.2500000), wk =   0.0039062
        k(  288) = (  -0.5000000   0.3750000  -0.1250000), wk =   0.0039062
        k(  289) = (  -0.5000000  -0.5000000   0.0000000), wk =   0.0039062
        k(  290) = (  -0.5000000  -0.5000000   0.1250000), wk =   0.0039062
        k(  291) = (  -0.5000000  -0.5000000   0.2500000), wk =   0.0039062
        k(  292) = (  -0.5000000  -0.5000000   0.3750000), wk =   0.0039062
        k(  293) = (  -0.5000000  -0.5000000  -0.5000000), wk =   0.0039062
        k(  294) = (  -0.5000000  -0.5000000  -0.3750000), wk =   0.0039062
        k(  295) = (  -0.5000000  -0.5000000  -0.2500000), wk =   0.0039062
        k(  296) = (  -0.5000000  -0.5000000  -0.1250000), wk =   0.0039062
        k(  297) = (  -0.5000000  -0.3750000   0.0000000), wk =   0.0039062
        k(  298) = (  -0.5000000  -0.3750000   0.1250000), wk =   0.0039062
        k(  299) = (  -0.5000000  -0.3750000   0.2500000), wk =   0.0039062
        k(  300) = (  -0.5000000  -0.3750000   0.3750000), wk =   0.0039062
        k(  301) = (  -0.5000000  -0.3750000  -0.5000000), wk =   0.0039062
        k(  302) = (  -0.5000000  -0.3750000  -0.3750000), wk =   0.0039062
        k(  303) = (  -0.5000000  -0.3750000  -0.2500000), wk =   0.0039062
        k(  304) = (  -0.5000000  -0.3750000  -0.1250000), wk =   0.0039062
        k(  305) = (  -0.5000000  -0.2500000   0.0000000), wk =   0.0039062
        k(  306) = (  -0.5000000  -0.2500000   0.1250000), wk =   0.0039062
        k(  307) = (  -0.5000000  -0.2500000   0.2500000), wk =   0.0039062
        k(  308) = (  -0.5000000  -0.2500000   0.3750000), wk =   0.0039062
        k(  309) = (  -0.5000000  -0.2500000  -0.5000000), wk =   0.0039062
        k(  310) = (  -0.5000000  -0.2500000  -0.3750000), wk =   0.0039062
        k(  311) = (  -0.5000000  -0.2500000  -0.2500000), wk =   0.0039062
        k(  312) = (  -0.5000000  -0.2500000  -0.1250000), wk =   0.0039062
        k(  313) = (  -0.5000000  -0.1250000   0.0000000), wk =   0.0039062
        k(  314) = (  -0.5000000  -0.1250000   0.1250000), wk =   0.0039062
        k(  315) = (  -0.5000000  -0.1250000   0.2500000), wk =   0.0039062
        k(  316) = (  -0.5000000  -0.1250000   0.3750000), wk =   0.0039062
        k(  317) = (  -0.5000000  -0.1250000  -0.5000000), wk =   0.0039062
        k(  318) = (  -0.5000000  -0.1250000  -0.3750000), wk =   0.0039062
        k(  319) = (  -0.5000000  -0.1250000  -0.2500000), wk =   0.0039062
        k(  320) = (  -0.5000000  -0.1250000  -0.1250000), wk =   0.0039062
        k(  321) = (  -0.3750000   0.0000000   0.0000000), wk =   0.0039062
        k(  322) = (  -0.3750000   0.0000000   0.1250000), wk =   0.0039062
        k(  323) = (  -0.3750000   0.0000000   0.2500000), wk =   0.0039062
        k(  324) = (  -0.3750000   0.0000000   0.3750000), wk =   0.0039062
        k(  325) = (  -0.3750000   0.0000000  -0.5000000), wk =   0.0039062
        k(  326) = (  -0.3750000   0.0000000  -0.3750000), wk =   0.0039062
        k(  327) = (  -0.3750000   0.0000000  -0.2500000), wk =   0.0039062
        k(  328) = (  -0.3750000   0.0000000  -0.1250000), wk =   0.0039062
        k(  329) = (  -0.3750000   0.1250000   0.0000000), wk =   0.0039062
        k(  330) = (  -0.3750000   0.1250000   0.1250000), wk =   0.0039062
        k(  331) = (  -0.3750000   0.1250000   0.2500000), wk =   0.0039062
        k(  332) = (  -0.3750000   0.1250000   0.3750000), wk =   0.0039062
        k(  333) = (  -0.3750000   0.1250000  -0.5000000), wk =   0.0039062
        k(  334) = (  -0.3750000   0.1250000  -0.3750000), wk =   0.0039062
        k(  335) = (  -0.3750000   0.1250000  -0.2500000), wk =   0.0039062
        k(  336) = (  -0.3750000   0.1250000  -0.1250000), wk =   0.0039062
        k(  337) = (  -0.3750000   0.2500000   0.0000000), wk =   0.0039062
        k(  338) = (  -0.3750000   0.2500000   0.1250000), wk =   0.0039062
        k(  339) = (  -0.3750000   0.2500000   0.2500000), wk =   0.0039062
        k(  340) = (  -0.3750000   0.2500000   0.3750000), wk =   0.0039062
        k(  341) = (  -0.3750000   0.2500000  -0.5000000), wk =   0.0039062
        k(  342) = (  -0.3750000   0.2500000  -0.3750000), wk =   0.0039062
        k(  343) = (  -0.3750000   0.2500000  -0.2500000), wk =   0.0039062
        k(  344) = (  -0.3750000   0.2500000  -0.1250000), wk =   0.0039062
        k(  345) = (  -0.3750000   0.3750000   0.0000000), wk =   0.0039062
        k(  346) = (  -0.3750000   0.3750000   0.1250000), wk =   0.0039062
        k(  347) = (  -0.3750000   0.3750000   0.2500000), wk =   0.0039062
        k(  348) = (  -0.3750000   0.3750000   0.3750000), wk =   0.0039062
        k(  349) = (  -0.3750000   0.3750000  -0.5000000), wk =   0.0039062
        k(  350) = (  -0.3750000   0.3750000  -0.3750000), wk =   0.0039062
        k(  351) = (  -0.3750000   0.3750000  -0.2500000), wk =   0.0039062
        k(  352) = (  -0.3750000   0.3750000  -0.1250000), wk =   0.0039062
        k(  353) = (  -0.3750000  -0.5000000   0.0000000), wk =   0.0039062
        k(  354) = (  -0.3750000  -0.5000000   0.1250000), wk =   0.0039062
        k(  355) = (  -0.3750000  -0.5000000   0.2500000), wk =   0.0039062
        k(  356) = (  -0.3750000  -0.5000000   0.3750000), wk =   0.0039062
        k(  357) = (  -0.3750000  -0.5000000  -0.5000000), wk =   0.0039062
        k(  358) = (  -0.3750000  -0.5000000  -0.3750000), wk =   0.0039062
        k(  359) = (  -0.3750000  -0.5000000  -0.2500000), wk =   0.0039062
        k(  360) = (  -0.3750000  -0.5000000  -0.1250000), wk =   0.0039062
        k(  361) = (  -0.3750000  -0.3750000   0.0000000), wk =   0.0039062
        k(  362) = (  -0.3750000  -0.3750000   0.1250000), wk =   0.0039062
        k(  363) = (  -0.3750000  -0.3750000   0.2500000), wk =   0.0039062
        k(  364) = (  -0.3750000  -0.3750000   0.3750000), wk =   0.0039062
        k(  365) = (  -0.3750000  -0.3750000  -0.5000000), wk =   0.0039062
        k(  366) = (  -0.3750000  -0.3750000  -0.3750000), wk =   0.0039062
        k(  367) = (  -0.3750000  -0.3750000  -0.2500000), wk =   0.0039062
        k(  368) = (  -0.3750000  -0.3750000  -0.1250000), wk =   0.0039062
        k(  369) = (  -0.3750000  -0.2500000   0.0000000), wk =   0.0039062
        k(  370) = (  -0.3750000  -0.2500000   0.1250000), wk =   0.0039062
        k(  371) = (  -0.3750000  -0.2500000   0.2500000), wk =   0.0039062
        k(  372) = (  -0.3750000  -0.2500000   0.3750000), wk =   0.0039062
        k(  373) = (  -0.3750000  -0.2500000  -0.5000000), wk =   0.0039062
        k(  374) = (  -0.3750000  -0.2500000  -0.3750000), wk =   0.0039062
        k(  375) = (  -0.3750000  -0.2500000  -0.2500000), wk =   0.0039062
        k(  376) = (  -0.3750000  -0.2500000  -0.1250000), wk =   0.0039062
        k(  377) = (  -0.3750000  -0.1250000   0.0000000), wk =   0.0039062
        k(  378) = (  -0.3750000  -0.1250000   0.1250000), wk =   0.0039062
        k(  379) = (  -0.3750000  -0.1250000   0.2500000), wk =   0.0039062
        k(  380) = (  -0.3750000  -0.1250000   0.3750000), wk =   0.0039062
        k(  381) = (  -0.3750000  -0.1250000  -0.5000000), wk =   0.0039062
        k(  382) = (  -0.3750000  -0.1250000  -0.3750000), wk =   0.0039062
        k(  383) = (  -0.3750000  -0.1250000  -0.2500000), wk =   0.0039062
        k(  384) = (  -0.3750000  -0.1250000  -0.1250000), wk =   0.0039062
        k(  385) = (  -0.2500000   0.0000000   0.0000000), wk =   0.0039062
        k(  386) = (  -0.2500000   0.0000000   0.1250000), wk =   0.0039062
        k(  387) = (  -0.2500000   0.0000000   0.2500000), wk =   0.0039062
        k(  388) = (  -0.2500000   0.0000000   0.3750000), wk =   0.0039062
        k(  389) = (  -0.2500000  -0.0000000  -0.5000000), wk =   0.0039062
        k(  390) = (  -0.2500000   0.0000000  -0.3750000), wk =   0.0039062
        k(  391) = (  -0.2500000   0.0000000  -0.2500000), wk =   0.0039062
        k(  392) = (  -0.2500000   0.0000000  -0.1250000), wk =   0.0039062
        k(  393) = (  -0.2500000   0.1250000   0.0000000), wk =   0.0039062
        k(  394) = (  -0.2500000   0.1250000   0.1250000), wk =   0.0039062
        k(  395) = (  -0.2500000   0.1250000   0.2500000), wk =   0.0039062
        k(  396) = (  -0.2500000   0.1250000   0.3750000), wk =   0.0039062
        k(  397) = (  -0.2500000   0.1250000  -0.5000000), wk =   0.0039062
        k(  398) = (  -0.2500000   0.1250000  -0.3750000), wk =   0.0039062
        k(  399) = (  -0.2500000   0.1250000  -0.2500000), wk =   0.0039062
        k(  400) = (  -0.2500000   0.1250000  -0.1250000), wk =   0.0039062
        k(  401) = (  -0.2500000   0.2500000  -0.0000000), wk =   0.0039062
        k(  402) = (  -0.2500000   0.2500000   0.1250000), wk =   0.0039062
        k(  403) = (  -0.2500000   0.2500000   0.2500000), wk =   0.0039062
        k(  404) = (  -0.2500000   0.2500000   0.3750000), wk =   0.0039062
        k(  405) = (  -0.2500000   0.2500000  -0.5000000), wk =   0.0039062
        k(  406) = (  -0.2500000   0.2500000  -0.3750000), wk =   0.0039062
        k(  407) = (  -0.2500000   0.2500000  -0.2500000), wk =   0.0039062
        k(  408) = (  -0.2500000   0.2500000  -0.1250000), wk =   0.0039062
        k(  409) = (  -0.2500000   0.3750000   0.0000000), wk =   0.0039062
        k(  410) = (  -0.2500000   0.3750000   0.1250000), wk =   0.0039062
        k(  411) = (  -0.2500000   0.3750000   0.2500000), wk =   0.0039062
        k(  412) = (  -0.2500000   0.3750000   0.3750000), wk =   0.0039062
        k(  413) = (  -0.2500000   0.3750000  -0.5000000), wk =   0.0039062
        k(  414) = (  -0.2500000   0.3750000  -0.3750000), wk =   0.0039062
        k(  415) = (  -0.2500000   0.3750000  -0.2500000), wk =   0.0039062
        k(  416) = (  -0.2500000   0.3750000  -0.1250000), wk =   0.0039062
        k(  417) = (  -0.2500000  -0.5000000   0.0000000), wk =   0.0039062
        k(  418) = (  -0.2500000  -0.5000000   0.1250000), wk =   0.0039062
        k(  419) = (  -0.2500000  -0.5000000   0.2500000), wk =   0.0039062
        k(  420) = (  -0.2500000  -0.5000000   0.3750000), wk =   0.0039062
        k(  421) = (  -0.2500000  -0.5000000  -0.5000000), wk =   0.0039062
        k(  422) = (  -0.2500000  -0.5000000  -0.3750000), wk =   0.0039062
        k(  423) = (  -0.2500000  -0.5000000  -0.2500000), wk =   0.0039062
        k(  424) = (  -0.2500000  -0.5000000  -0.1250000), wk =   0.0039062
        k(  425) = (  -0.2500000  -0.3750000   0.0000000), wk =   0.0039062
        k(  426) = (  -0.2500000  -0.3750000   0.1250000), wk =   0.0039062
        k(  427) = (  -0.2500000  -0.3750000   0.2500000), wk =   0.0039062
        k(  428) = (  -0.2500000  -0.3750000   0.3750000), wk =   0.0039062
        k(  429) = (  -0.2500000  -0.3750000  -0.5000000), wk =   0.0039062
        k(  430) = (  -0.2500000  -0.3750000  -0.3750000), wk =   0.0039062
        k(  431) = (  -0.2500000  -0.3750000  -0.2500000), wk =   0.0039062
        k(  432) = (  -0.2500000  -0.3750000  -0.1250000), wk =   0.0039062
        k(  433) = (  -0.2500000  -0.2500000   0.0000000), wk =   0.0039062
        k(  434) = (  -0.2500000  -0.2500000   0.1250000), wk =   0.0039062
        k(  435) = (  -0.2500000  -0.2500000   0.2500000), wk =   0.0039062
        k(  436) = (  -0.2500000  -0.2500000   0.3750000), wk =   0.0039062
        k(  437) = (  -0.2500000  -0.2500000  -0.5000000), wk =   0.0039062
        k(  438) = (  -0.2500000  -0.2500000  -0.3750000), wk =   0.0039062
        k(  439) = (  -0.2500000  -0.2500000  -0.2500000), wk =   0.0039062
        k(  440) = (  -0.2500000  -0.2500000  -0.1250000), wk =   0.0039062
        k(  441) = (  -0.2500000  -0.1250000   0.0000000), wk =   0.0039062
        k(  442) = (  -0.2500000  -0.1250000   0.1250000), wk =   0.0039062
        k(  443) = (  -0.2500000  -0.1250000   0.2500000), wk =   0.0039062
        k(  444) = (  -0.2500000  -0.1250000   0.3750000), wk =   0.0039062
        k(  445) = (  -0.2500000  -0.1250000  -0.5000000), wk =   0.0039062
        k(  446) = (  -0.2500000  -0.1250000  -0.3750000), wk =   0.0039062
        k(  447) = (  -0.2500000  -0.1250000  -0.2500000), wk =   0.0039062
        k(  448) = (  -0.2500000  -0.1250000  -0.1250000), wk =   0.0039062
        k(  449) = (  -0.1250000   0.0000000   0.0000000), wk =   0.0039062
        k(  450) = (  -0.1250000   0.0000000   0.1250000), wk =   0.0039062
        k(  451) = (  -0.1250000   0.0000000   0.2500000), wk =   0.0039062
        k(  452) = (  -0.1250000   0.0000000   0.3750000), wk =   0.0039062
        k(  453) = (  -0.1250000   0.0000000  -0.5000000), wk =   0.0039062
        k(  454) = (  -0.1250000   0.0000000  -0.3750000), wk =   0.0039062
        k(  455) = (  -0.1250000  -0.0000000  -0.2500000), wk =   0.0039062
        k(  456) = (  -0.1250000   0.0000000  -0.1250000), wk =   0.0039062
        k(  457) = (  -0.1250000   0.1250000  -0.0000000), wk =   0.0039062
        k(  458) = (  -0.1250000   0.1250000   0.1250000), wk =   0.0039062
        k(  459) = (  -0.1250000   0.1250000   0.2500000), wk =   0.0039062
        k(  460) = (  -0.1250000   0.1250000   0.3750000), wk =   0.0039062
        k(  461) = (  -0.1250000   0.1250000  -0.5000000), wk =   0.0039062
        k(  462) = (  -0.1250000   0.1250000  -0.3750000), wk =   0.0039062
        k(  463) = (  -0.1250000   0.1250000  -0.2500000), wk =   0.0039062
        k(  464) = (  -0.1250000   0.1250000  -0.1250000), wk =   0.0039062
        k(  465) = (  -0.1250000   0.2500000   0.0000000), wk =   0.0039062
        k(  466) = (  -0.1250000   0.2500000   0.1250000), wk =   0.0039062
        k(  467) = (  -0.1250000   0.2500000   0.2500000), wk =   0.0039062
        k(  468) = (  -0.1250000   0.2500000   0.3750000), wk =   0.0039062
        k(  469) = (  -0.1250000   0.2500000  -0.5000000), wk =   0.0039062
        k(  470) = (  -0.1250000   0.2500000  -0.3750000), wk =   0.0039062
        k(  471) = (  -0.1250000   0.2500000  -0.2500000), wk =   0.0039062
        k(  472) = (  -0.1250000   0.2500000  -0.1250000), wk =   0.0039062
        k(  473) = (  -0.1250000   0.3750000  -0.0000000), wk =   0.0039062
        k(  474) = (  -0.1250000   0.3750000   0.1250000), wk =   0.0039062
        k(  475) = (  -0.1250000   0.3750000   0.2500000), wk =   0.0039062
        k(  476) = (  -0.1250000   0.3750000   0.3750000), wk =   0.0039062
        k(  477) = (  -0.1250000   0.3750000  -0.5000000), wk =   0.0039062
        k(  478) = (  -0.1250000   0.3750000  -0.3750000), wk =   0.0039062
        k(  479) = (  -0.1250000   0.3750000  -0.2500000), wk =   0.0039062
        k(  480) = (  -0.1250000   0.3750000  -0.1250000), wk =   0.0039062
        k(  481) = (  -0.1250000  -0.5000000   0.0000000), wk =   0.0039062
        k(  482) = (  -0.1250000  -0.5000000   0.1250000), wk =   0.0039062
        k(  483) = (  -0.1250000  -0.5000000   0.2500000), wk =   0.0039062
        k(  484) = (  -0.1250000  -0.5000000   0.3750000), wk =   0.0039062
        k(  485) = (  -0.1250000  -0.5000000  -0.5000000), wk =   0.0039062
[...]
     1.0000   1.0000   0.0000   0.0000

          k =-0.2480-0.3375 0.2559 (   509 PWs)   bands (ev):

     0.8477   1.8098  10.3951  14.6921

     occupation numbers 
     1.0000   1.0000   0.0000   0.0000

          k =-0.2170-0.2819-0.3152 (   503 PWs)   bands (ev):

     0.6223   2.0796  11.1687  13.4758

     occupation numbers 
     1.0000   1.0000   0.0000   0.0000

          k =-0.2215-0.2898-0.2336 (   505 PWs)   bands (ev):

    -0.0678   3.2985  11.9929  12.2324

     occupation numbers 
     1.0000   1.0000   0.0000   0.0000

          k =-0.2259-0.2978-0.1520 (   504 PWs)   bands (ev):

    -0.5290   4.7240  10.4169  12.4984

     occupation numbers 
     1.0000   1.0000   0.0000   0.0000

          k =-0.2303-0.3057-0.0705 (   508 PWs)   bands (ev):

    -0.7372   6.1768   8.4599  12.2346

     occupation numbers 
     1.0000   1.0000   0.0000   0.0000

          k =-0.1213-0.0789 0.0019 (   520 PWs)   bands (ev):

    -3.2641   3.5025   8.0283  17.6741

     occupation numbers 
     1.0000   1.0000   0.0000   0.0000

          k =-0.1257-0.0869 0.0835 (   515 PWs)   bands (ev):

    -3.0870   2.5113   9.3725  17.5120

     occupation numbers 
     1.0000   1.0000   0.0000   0.0000

          k =-0.1302-0.0948 0.1651 (   512 PWs)   bands (ev):

    -2.6560   1.0905  11.6912  17.6282

     occupation numbers 
     1.0000   1.0000   0.0000   0.0000

          k =-0.1346-0.1027 0.2466 (   517 PWs)   bands (ev):

    -1.9901  -0.2081  14.3629  18.0338

     occupation numbers 
     1.0000   1.0000   0.0000   0.0000

          k =-0.1036-0.0472-0.3244 (   520 PWs)   bands (ev):

    -1.5394  -0.8147  16.1766  17.4785

     occupation numbers 
     1.0000   1.0000   0.0000   0.0000

          k =-0.1080-0.0551-0.2428 (   518 PWs)   bands (ev):

    -2.2672   0.2415  13.5406  18.7974

     occupation numbers 
     1.0000   1.0000   0.0000   0.0000

          k =-0.1125-0.0630-0.1613 (   518 PWs)   bands (ev):

    -2.8505   1.6041  10.8929  18.7196

     occupation numbers 
     1.0000   1.0000   0.0000   0.0000

          k =-0.1169-0.0710-0.0797 (   516 PWs)   bands (ev):

    -3.1851   2.9704   8.7658  18.0890

     occupation numbers 
     1.0000   1.0000   0.0000   0.0000

          k =-0.1292 0.0769-0.0054 (   516 PWs)   bands (ev):

    -3.2333   3.5765   8.0203  19.1196

     occupation numbers 
     1.0000   1.0000   0.0000   0.0000

          k =-0.1336 0.0690 0.0762 (   510 PWs)   bands (ev):

    -3.1237   2.8907   8.9515  19.2692

     occupation numbers 
     1.0000   1.0000   0.0000   0.0000

          k =-0.1380 0.0610 0.1577 (   514 PWs)   bands (ev):

    -2.7594   1.4939  11.1543  19.5763

     occupation numbers 
     1.0000   1.0000   0.0000   0.0000

          k =-0.1424 0.0531 0.2393 (   516 PWs)   bands (ev):

    -2.1501   0.1427  13.8464  19.9176

     occupation numbers 
     1.0000   1.0000   0.0000   0.0000

          k =-0.1115 0.1086-0.3317 (   514 PWs)   bands (ev):

    -1.4616  -0.8285  16.5041  17.5447

     occupation numbers 
     1.0000   1.0000   0.0000   0.0000

          k =-0.1159 0.1007-0.2502 (   509 PWs)   bands (ev):

    -2.0401  -0.0391  14.2255  19.8054

     occupation numbers 
     1.0000   1.0000   0.0000   0.0000

          k =-0.1203 0.0928-0.1686 (   516 PWs)   bands (ev):

    -2.6843   1.2798  11.5186  19.3995

     occupation numbers 
     1.0000   1.0000   0.0000   0.0000

          k =-0.1248 0.0848-0.0870 (   517 PWs)   bands (ev):

    -3.0864   2.6945   9.2257  19.1512

     occupation numbers 
     1.0000   1.0000   0.0000   0.0000

          k =-0.1371 0.2327-0.0127 (   501 PWs)   bands (ev):

    -2.2635   4.6584   8.4827  16.2662

     occupation numbers 
     1.0000   1.0000   0.0000   0.0000

          k =-0.1415 0.2248 0.0688 (   503 PWs)   bands (ev):

    -2.2213   4.3250   8.9180  16.4700

     occupation numbers 
     1.0000   1.0000   0.0000   0.0000

          k =-0.1459 0.2168 0.1504 (   506 PWs)   bands (ev):

    -1.9225   2.8971  10.9508  16.8931

     occupation numbers 
     1.0000   1.0000   0.0000   0.0000

          k =-0.1503 0.2089 0.2320 (   512 PWs)   bands (ev):

    -1.3719   1.4656  13.3948  17.4854

     occupation numbers 
     1.0000   1.0000   0.0000   0.0000

          k =-0.1194 0.2645-0.3390 (   514 PWs)   bands (ev):

    -0.6300   0.3051  15.7119  17.0821

     occupation numbers 
     1.0000   1.0000   0.0000   0.0000

          k =-0.1238 0.2565-0.2575 (   513 PWs)   bands (ev):

    -0.8763   0.6358  14.9719  16.7455

     occupation numbers 
     1.0000   1.0000   0.0000   0.0000

          k =-0.1282 0.2486-0.1759 (   510 PWs)   bands (ev):

    -1.5780   1.9176  12.4893  16.5773

     occupation numbers 
     1.0000   1.0000   0.0000   0.0000

          k =-0.1326 0.2406-0.0943 (   505 PWs)   bands (ev):

    -2.0483   3.3955  10.1500  16.3143

     occupation numbers 
     1.0000   1.0000   0.0000   0.0000

          k =-0.1449 0.3885-0.0200 (   511 PWs)   bands (ev):

    -0.3689   6.5003   9.1836  12.7305

     occupation numbers 
     1.0000   1.0000   0.0000   0.0000

          k =-0.1493 0.3806 0.0615 (   508 PWs)   bands (ev):

    -0.3905   6.7616   8.9925  13.0346

     occupation numbers 
     1.0000   1.0000   0.0000   0.0000

          k =-0.1538 0.3726 0.1431 (   507 PWs)   bands (ev):

    -0.1565   5.2110  10.6929  13.5935

     occupation numbers 
     1.0000   1.0000   0.0000   0.0000

          k =-0.1582 0.3647 0.2247 (   507 PWs)   bands (ev):

     0.3303   3.6952  11.9192  14.4272

     occupation numbers 
     1.0000   1.0000   0.0000   0.0000

          k =-0.1272 0.4203-0.3464 (   507 PWs)   bands (ev):

     1.0469   2.4208  12.0707  15.1092

     occupation numbers 
     1.0000   1.0000   0.0000   0.0000

          k =-0.1317 0.4123-0.2648 (   511 PWs)   bands (ev):

     1.1971   2.2152  11.8386  14.6422

     occupation numbers 
     1.0000   1.0000   0.0000   0.0000

          k =-0.1361 0.4044-0.1832 (   512 PWs)   bands (ev):

     0.4508   3.4157  11.4917  13.6523

     occupation numbers 
     1.0000   1.0000   0.0000   0.0000

          k =-0.1405 0.3965-0.1016 (   511 PWs)   bands (ev):

    -0.0863   4.8956  10.6648  12.8531

     occupation numbers 
     1.0000   1.0000   0.0000   0.0000

          k =-0.0898-0.7022 0.0312 (   509 PWs)   bands (ev):

     2.2554   6.5061   9.1025  11.5827

     occupation numbers 
     1.0000   1.0000   0.0000   0.0000

          k =-0.0942-0.7101 0.1127 (   506 PWs)   bands (ev):

     2.2057   6.8158   9.5863  11.1915

     occupation numbers 
     1.0000   1.0000   0.0000   0.0000

          k =-0.0987-0.7180 0.1943 (   509 PWs)   bands (ev):

     2.3990   6.7118   9.2740  10.4130

     occupation numbers 
     1.0000   1.0000   0.0000   0.0000

          k =-0.1031-0.7260 0.2759 (   507 PWs)   bands (ev):

     2.8198   5.9691   8.7472  10.2706

     occupation numbers 
     1.0000   1.0000   0.0000   0.0000

          k =-0.0721-0.6704-0.2951 (   504 PWs)   bands (ev):

     3.4449   4.9132   8.3003  10.8687

     occupation numbers 
     1.0000   1.0000   0.0000   0.0000

          k =-0.0765-0.6784-0.2136 (   511 PWs)   bands (ev):

     3.9147   4.2366   8.0423  11.7864

     occupation numbers 
     1.0000   1.0000   0.0000   0.0000

          k =-0.0810-0.6863-0.1320 (   512 PWs)   bands (ev):

     3.1152   5.1152   8.0464  12.4857

     occupation numbers 
     1.0000   1.0000   0.0000   0.0000

          k =-0.0854-0.6942-0.0504 (   513 PWs)   bands (ev):

     2.5595   5.9283   8.4030  12.1934

     occupation numbers 
     1.0000   1.0000   0.0000   0.0000

          k =-0.0977-0.5464 0.0238 (   504 PWs)   bands (ev):

     2.1012   6.6504   8.9793  11.2167

     occupation numbers 
     1.0000   1.0000   0.0000   0.0000

          k =-0.1021-0.5543 0.1054 (   506 PWs)   bands (ev):

     2.4485   5.9192   8.3874  11.5270

     occupation numbers 
     1.0000   1.0000   0.0000   0.0000

          k =-0.1065-0.5622 0.1870 (   504 PWs)   bands (ev):

     3.0519   4.9597   8.1342  11.8547

     occupation numbers 
     1.0000   1.0000   0.0000   0.0000

          k =-0.1110-0.5702 0.2686 (   500 PWs)   bands (ev):

     3.8772   4.0268   8.1790  11.5982

     occupation numbers 
     1.0000   1.0000   0.0000   0.0000

          k =-0.0800-0.5146-0.3025 (   500 PWs)   bands (ev):

     3.1815   4.9634   8.4310  10.8575

     occupation numbers 
     1.0000   1.0000   0.0000   0.0000

          k =-0.0844-0.5226-0.2209 (   502 PWs)   bands (ev):

     2.5632   6.0943   8.8038  10.3217

     occupation numbers 
     1.0000   1.0000   0.0000   0.0000

          k =-0.0888-0.5305-0.1393 (   503 PWs)   bands (ev):

     2.1672   6.9221   9.1279  10.5788

     occupation numbers 
     1.0000   1.0000   0.0000   0.0000

          k =-0.0933-0.5384-0.0577 (   500 PWs)   bands (ev):

     2.0093   7.0346   9.3453  11.3955

     occupation numbers 
     1.0000   0.9997   0.0000   0.0000

          k =-0.1056-0.3905 0.0165 (   508 PWs)   bands (ev):

    -0.5106   6.1838   9.3651  12.4084

     occupation numbers 
     1.0000   1.0000   0.0000   0.0000

          k =-0.1100-0.3985 0.0981 (   507 PWs)   bands (ev):

    -0.1974   4.5921  10.9133  12.2593

     occupation numbers 
     1.0000   1.0000   0.0000   0.0000

          k =-0.1144-0.4064 0.1797 (   509 PWs)   bands (ev):

     0.3684   3.1232  11.8751  12.6012

     occupation numbers 
     1.0000   1.0000   0.0000   0.0000

          k =-0.1188-0.4144 0.2613 (   508 PWs)   bands (ev):

     1.1177   1.9659  12.1317  13.3737

     occupation numbers 
     1.0000   1.0000   0.0000   0.0000

          k =-0.0879-0.3588-0.3098 (   507 PWs)   bands (ev):

     0.7934   2.3919  12.2659  14.0292

     occupation numbers 
     1.0000   1.0000   0.0000   0.0000

          k =-0.0923-0.3667-0.2282 (   506 PWs)   bands (ev):

     0.0977   3.6913  11.9637  14.2900

     occupation numbers 
     1.0000   1.0000   0.0000   0.0000

          k =-0.0967-0.3747-0.1466 (   506 PWs)   bands (ev):

    -0.3629   5.2057  10.6453  13.4445

     occupation numbers 
     1.0000   1.0000   0.0000   0.0000

          k =-0.1011-0.3826-0.0650 (   507 PWs)   bands (ev):

    -0.5659   6.6500   8.9959  12.7994

     occupation numbers 
     1.0000   1.0000   0.0000   0.0000

          k =-0.1134-0.2347 0.0092 (   508 PWs)   bands (ev):

    -2.3543   4.4378   8.5259  15.2102

     occupation numbers 
     1.0000   1.0000   0.0000   0.0000

          k =-0.1179-0.2427 0.0908 (   507 PWs)   bands (ev):

    -2.1077   3.1245  10.2241  15.1825

     occupation numbers 
     1.0000   1.0000   0.0000   0.0000

          k =-0.1223-0.2506 0.1724 (   509 PWs)   bands (ev):

    -1.6108   1.6594  12.4396  15.5316

     occupation numbers 
     1.0000   1.0000   0.0000   0.0000

          k =-0.1267-0.2585 0.2540 (   510 PWs)   bands (ev):

    -0.8921   0.4100  14.4028  16.5154

     occupation numbers 
     1.0000   1.0000   0.0000   0.0000

          k =-0.0957-0.2030-0.3171 (   512 PWs)   bands (ev):

    -0.8186   0.3022  15.3135  16.0506

     occupation numbers 
     1.0000   1.0000   0.0000   0.0000

          k =-0.1002-0.2109-0.2355 (   512 PWs)   bands (ev):

    -1.5525   1.5000  13.1787  16.5820

     occupation numbers 
     1.0000   1.0000   0.0000   0.0000

          k =-0.1046-0.2189-0.1539 (   513 PWs)   bands (ev):

    -2.0750   2.9313  10.7268  16.1174

     occupation numbers 
     1.0000   1.0000   0.0000   0.0000

          k =-0.1090-0.2268-0.0724 (   511 PWs)   bands (ev):

    -2.3424   4.2987   8.7634  15.5394

     occupation numbers 
     1.0000   1.0000   0.0000   0.0000

     the Fermi energy is     7.2474 ev

!    total energy              =      -5.34846910 Ry
     estimated scf accuracy    <       0.00531173 Ry
     smearing contrib. (-TS)   =      -0.00007459 Ry
     internal energy E=F+TS    =      -5.34839451 Ry

     The total energy is F=E-TS. E is the sum of the following terms:
     one-electron contribution =       3.75590172 Ry
     hartree contribution      =       0.01527682 Ry
     xc contribution           =      -3.21131751 Ry
     ewald contribution        =      -5.90825555 Ry

     convergence has been achieved in   1 iterations

     Forces acting on atoms (cartesian axes, Ry/au):

     atom    1 type  1   force =     0.00486524    0.00507769   -0.00659110
     atom    2 type  1   force =    -0.00486524   -0.00507769    0.00659110
     The non-local contrib.  to forces
     atom    1 type  1   force =    -0.00705651   -0.00721252    0.05273103
     atom    2 type  1   force =     0.00711279    0.00719379   -0.05278333
     The ionic contribution  to forces
     atom    1 type  1   force =    -0.00623459   -0.01645206    0.10470144
     atom    2 type  1   force =     0.00623459    0.01645206   -0.10470144
     The local contribution  to forces
     atom    1 type  1   force =     0.01967155    0.03139793   -0.19185152
     atom    2 type  1   force =    -0.01969045   -0.03138822    0.19187487
     The core correction contribution to forces
     atom    1 type  1   force =     0.00052467    0.00067608   -0.00362316
     atom    2 type  1   force =    -0.00050586   -0.00069668    0.00364291
     The Hubbard contrib.    to forces
     atom    1 type  1   force =     0.00000000    0.00000000    0.00000000
     atom    2 type  1   force =     0.00000000    0.00000000    0.00000000
     The SCF correction term to forces
     atom    1 type  1   force =    -0.00200268   -0.00334483    0.03143803
     atom    2 type  1   force =     0.00202090    0.00334828   -0.03145499

     Total force =     0.013631     Total SCF correction =     0.044814
     SCF correction compared to forces is large: reduce conv_thr to get better values


     Computing stress (Cartesian axis) and pressure

          total   stress  (Ry/bohr**3)                   (kbar)     P=      -89.09
  -0.00100470  -0.00039438  -0.00040095         -147.80      -58.02      -58.98
  -0.00039438  -0.00030447  -0.00064614          -58.02      -44.79      -95.05
  -0.00040095  -0.00064614  -0.00050760          -58.98      -95.05      -74.67

     kinetic stress (kbar)   2297.48    -53.62    -37.70
                              -53.62   2405.60    -85.51
                              -37.70    -85.51   2354.35

     local   stress (kbar)    201.04     56.69     53.82
                               56.69    188.09     44.88
                               53.82     44.88    151.98

     nonloc. stress (kbar)    761.85     -5.78     -9.04
                               -5.78    752.69     -4.70
                               -9.04     -4.70    778.66

     hartree stress (kbar)     14.34     -1.02      1.43
                               -1.02     15.25      3.11
                                1.43      3.11    -10.68

     exc-cor stress (kbar)    131.34     -1.00     -0.96
                               -1.00    131.82     -1.08
                               -0.96     -1.08    132.89

     corecor stress (kbar)  -1084.26      2.96      2.83
                                2.96  -1086.06      3.35
                                2.83      3.35  -1089.10

     ewald   stress (kbar)  -2469.59    -56.24    -69.37
                              -56.24  -2452.17    -55.10
                              -69.37    -55.10  -2392.77

     hubbard stress (kbar)      0.00      0.00      0.00
                                0.00      0.00      0.00
                                0.00      0.00      0.00

     DFT-D   stress (kbar)      0.00      0.00      0.00
                                0.00      0.00      0.00
                                0.00      0.00      0.00

     XDM     stress (kbar)      0.00      0.00      0.00
                                0.00      0.00      0.00
                                0.00      0.00      0.00

     dft-nl  stress (kbar)      0.00      0.00      0.00
                                0.00      0.00      0.00
                                0.00      0.00      0.00

     TS-vdW  stress (kbar)      0.00      0.00      0.00
                                0.00      0.00      0.00
                                0.00      0.00      0.00

     MDB     stress (kbar)      0.00      0.00      0.00
                                0.00      0.00      0.00
                                0.00      0.00      0.00

     3D-RISM stress (kbar)      0.00      0.00      0.00
                                0.00      0.00      0.00
                                0.00      0.00      0.00


     Writing all to output data dir ../tmp/Be/Be.save/ :
     XML data file, charge density, pseudopotentials, collected wavefunctions

     init_run     :      1.37s CPU      1.41s WALL (       1 calls)
     electrons    :      3.65s CPU      3.80s WALL (       1 calls)
     forces       :      0.12s CPU      0.13s WALL (       1 calls)
     stress       :      1.16s CPU      1.17s WALL (       1 calls)

     Called by init_run:
     wfcinit      :      0.98s CPU      1.01s WALL (       1 calls)
     wfcinit:atom :      0.03s CPU      0.04s WALL (     512 calls)
     wfcinit:wfcr :      0.78s CPU      0.80s WALL (     512 calls)
     potinit      :      0.02s CPU      0.02s WALL (       1 calls)
     hinit0       :      0.33s CPU      0.33s WALL (       1 calls)

     Called by electrons:
     c_bands      :      3.21s CPU      3.35s WALL (       2 calls)
     sum_band     :      0.42s CPU      0.44s WALL (       2 calls)
     v_of_rho     :      0.01s CPU      0.01s WALL (       2 calls)
     v_h          :      0.00s CPU      0.00s WALL (       2 calls)
     v_xc         :      0.02s CPU      0.02s WALL (       4 calls)
     newd         :      0.01s CPU      0.01s WALL (       2 calls)
     mix_rho      :      0.00s CPU      0.00s WALL (       2 calls)

     Called by c_bands:
     init_us_2    :      0.33s CPU      0.35s WALL (    3584 calls)
     cegterg      :      2.98s CPU      3.10s WALL (    1024 calls)

     Called by sum_band:
     sum_band:wei :      0.00s CPU      0.00s WALL (       2 calls)
     sum_band:loo :      0.42s CPU      0.43s WALL (       2 calls)
     sum_band:buf :      0.01s CPU      0.01s WALL (    1024 calls)
     sum_band:ini :      0.10s CPU      0.10s WALL (    1024 calls)
     sum_band:cal :      0.02s CPU      0.02s WALL (    1024 calls)
     sum_band:bec :      0.00s CPU      0.00s WALL (    1024 calls)
     addusdens    :      0.01s CPU      0.01s WALL (       2 calls)
                                        0.00s GPU  (       2 calls)
     addusd:skk   :      0.00s CPU      0.00s WALL (       2 calls)
                                        0.00s GPU  (       2 calls)

     Called by *egterg:
     cdiaghg      :      0.16s CPU      0.16s WALL (    5004 calls)
     cegterg:over :      0.06s CPU      0.06s WALL (    4492 calls)
     cegterg:upda :      0.07s CPU      0.08s WALL (    4492 calls)
     cegterg:last :      0.10s CPU      0.10s WALL (    3484 calls)
     h_psi        :      3.14s CPU      3.26s WALL (    6028 calls)
     s_psi        :      0.09s CPU      0.09s WALL (    6028 calls)
     g_psi        :      0.03s CPU      0.03s WALL (    4492 calls)

     Called by h_psi:
     h_psi:calbec :      0.09s CPU      0.10s WALL (    6028 calls)
     vloc_psi     :      2.92s CPU      3.03s WALL (    6028 calls)
     add_vuspsi   :      0.09s CPU      0.10s WALL (    6028 calls)

     General routines
     calbec       :      0.14s CPU      0.15s WALL (    9612 calls)
     fft          :      0.18s CPU      0.18s WALL (      48 calls)
     ffts         :      0.00s CPU      0.00s WALL (       2 calls)
     fftw         :      2.71s CPU      2.81s WALL (   44338 calls)


     PWSCF        :      6.40s CPU      6.64s WALL


   This run was terminated on:  18:51:12   6May2024            

=------------------------------------------------------------------------------=
   JOB DONE.
=------------------------------------------------------------------------------=
