
     Program PWSCF v.7.3.1 starts on  7May2024 at 15:20:30 

     This program is part of the open-source Quantum ESPRESSO suite
     for quantum simulation of materials; please cite
         "P. Giannozzi et al., J. Phys.:Condens. Matter 21 395502 (2009);
         "P. Giannozzi et al., J. Phys.:Condens. Matter 29 465901 (2017);
         "P. Giannozzi et al., J. Chem. Phys. 152 154105 (2020);
          URL http://www.quantum-espresso.org", 
     in publications or presentations arising from this work. More details at
     http://www.quantum-espresso.org/quote

     Serial version
     5841 MiB available memory on the printing compute node when the environment starts

     Reading input from Si1.pw.in

     Current dimensions of program PWSCF are:
     Max number of different atomic species (ntypx) = 10
     Max number of k-points (npk) =  40000
     Max angular momentum in pseudopotentials (lmaxx) =  4


     G-vector sticks info
     --------------------
     sticks:   dense  smooth     PW     G-vecs:    dense   smooth      PW
     Sum         283     283    109                 6629     6629    1449

     Using Slab Decomposition



     bravais-lattice index     =            0
     lattice parameter (alat)  =       5.0781  a.u.
     unit-cell volume          =     193.8226 (a.u.)^3
     number of atoms/cell      =            2
     number of atomic types    =            1
     number of electrons       =         8.00
     number of Kohn-Sham states=            8
     kinetic-energy cutoff     =      40.0000  Ry
     charge density cutoff     =     160.0000  Ry
     scf convergence threshold =      2.0E-02
     mixing beta               =       0.1000
     number of iterations used =            8  plain     mixing
     Exchange-correlation=  SLA  PZ   NOGX NOGC
                           (   1   1   0   0   0   0   0)

     celldm(1)=   5.078053  celldm(2)=   0.000000  celldm(3)=   0.000000
     celldm(4)=   0.000000  celldm(5)=   0.000000  celldm(6)=   0.000000

     crystal axes: (cart. coord. in units of alat)
               a(1) = (   1.000000   0.000000   0.000000 )  
               a(2) = (  -0.500000   0.866025   0.000000 )  
               a(3) = (   0.000000   0.000000   1.709157 )  

     reciprocal axes: (cart. coord. in units 2 pi/alat)
               b(1) = (  1.000000  0.577350 -0.000000 )  
               b(2) = (  0.000000  1.154701  0.000000 )  
               b(3) = (  0.000000 -0.000000  0.585084 )  


     PseudoPot. # 1 for Si read from file:
     ../pseudo/Si.pz-vbc.UPF
     MD5 check sum: 6dfa03ddd5817404712e03e4d12deb78
     Pseudo is Norm-conserving, Zval =  4.0
     Generated by new atomic code, or converted to UPF format
     Using radial grid of  431 points,  2 beta functions with: 
                l(1) =   0
                l(2) =   1

     atomic species   valence    mass     pseudopotential
     Si                4.00    28.08600     Si( 1.00)

     No symmetry found


                                    s                        frac. trans.

      isym =  1     identity                                     

 cryst.   s( 1) = (     1          0          0      )
                  (     0          1          0      )
                  (     0          0          1      )

 cart.    s( 1) = (  1.0000000  0.0000000  0.0000000 )
                  (  0.0000000  1.0000000  0.0000000 )
                  (  0.0000000  0.0000000  1.0000000 )


   Cartesian axes

     site n.     atom                  positions (alat units)
         1        Si     tau(   1) = (   0.0857952   0.5009693   0.3028891  )
         2        Si     tau(   2) = (   0.4864352   0.3012006   1.4241406  )

   Crystallographic axes

     site n.     atom                  positions (cryst. coord.)
         1        Si     tau(   1) = (  0.3750300  0.5784695  0.1772155  )
         2        Si     tau(   2) = (  0.6603335  0.3477965  0.8332413  )

     number of k points=   512  Fermi-Dirac smearing, width (Ry)=  0.0019
                       cart. coord. in units 2pi/alat
        k(    1) = (   0.0000000   0.0000000   0.0000000), wk =   0.0039062
        k(    2) = (   0.0000000   0.0000000   0.0731354), wk =   0.0039062
        k(    3) = (   0.0000000   0.0000000   0.1462709), wk =   0.0039062
        k(    4) = (   0.0000000   0.0000000   0.2194063), wk =   0.0039062
        k(    5) = (   0.0000000   0.0000000  -0.2925418), wk =   0.0039062
        k(    6) = (   0.0000000   0.0000000  -0.2194063), wk =   0.0039062
        k(    7) = (   0.0000000   0.0000000  -0.1462709), wk =   0.0039062
        k(    8) = (   0.0000000   0.0000000  -0.0731354), wk =   0.0039062
        k(    9) = (   0.0000000   0.1443376   0.0000000), wk =   0.0039062
        k(   10) = (   0.0000000   0.1443376   0.0731354), wk =   0.0039062
        k(   11) = (   0.0000000   0.1443376   0.1462709), wk =   0.0039062
        k(   12) = (   0.0000000   0.1443376   0.2194063), wk =   0.0039062
        k(   13) = (   0.0000000   0.1443376  -0.2925418), wk =   0.0039062
        k(   14) = (   0.0000000   0.1443376  -0.2194063), wk =   0.0039062
        k(   15) = (   0.0000000   0.1443376  -0.1462709), wk =   0.0039062
        k(   16) = (   0.0000000   0.1443376  -0.0731354), wk =   0.0039062
        k(   17) = (   0.0000000   0.2886751   0.0000000), wk =   0.0039062
        k(   18) = (   0.0000000   0.2886751   0.0731354), wk =   0.0039062
        k(   19) = (   0.0000000   0.2886751   0.1462709), wk =   0.0039062
        k(   20) = (   0.0000000   0.2886751   0.2194063), wk =   0.0039062
        k(   21) = (   0.0000000   0.2886751  -0.2925418), wk =   0.0039062
        k(   22) = (   0.0000000   0.2886751  -0.2194063), wk =   0.0039062
        k(   23) = (   0.0000000   0.2886751  -0.1462709), wk =   0.0039062
        k(   24) = (   0.0000000   0.2886751  -0.0731354), wk =   0.0039062
        k(   25) = (   0.0000000   0.4330127   0.0000000), wk =   0.0039062
        k(   26) = (   0.0000000   0.4330127   0.0731354), wk =   0.0039062
        k(   27) = (   0.0000000   0.4330127   0.1462709), wk =   0.0039062
        k(   28) = (   0.0000000   0.4330127   0.2194063), wk =   0.0039062
        k(   29) = (   0.0000000   0.4330127  -0.2925418), wk =   0.0039062
        k(   30) = (   0.0000000   0.4330127  -0.2194063), wk =   0.0039062
        k(   31) = (   0.0000000   0.4330127  -0.1462709), wk =   0.0039062
        k(   32) = (   0.0000000   0.4330127  -0.0731354), wk =   0.0039062
        k(   33) = (   0.0000000  -0.5773503   0.0000000), wk =   0.0039062
        k(   34) = (   0.0000000  -0.5773503   0.0731354), wk =   0.0039062
        k(   35) = (   0.0000000  -0.5773503   0.1462709), wk =   0.0039062
        k(   36) = (   0.0000000  -0.5773503   0.2194063), wk =   0.0039062
        k(   37) = (   0.0000000  -0.5773503  -0.2925418), wk =   0.0039062
        k(   38) = (   0.0000000  -0.5773503  -0.2194063), wk =   0.0039062
        k(   39) = (   0.0000000  -0.5773503  -0.1462709), wk =   0.0039062
        k(   40) = (   0.0000000  -0.5773503  -0.0731354), wk =   0.0039062
        k(   41) = (   0.0000000  -0.4330127   0.0000000), wk =   0.0039062
        k(   42) = (   0.0000000  -0.4330127   0.0731354), wk =   0.0039062
        k(   43) = (   0.0000000  -0.4330127   0.1462709), wk =   0.0039062
        k(   44) = (   0.0000000  -0.4330127   0.2194063), wk =   0.0039062
        k(   45) = (   0.0000000  -0.4330127  -0.2925418), wk =   0.0039062
        k(   46) = (   0.0000000  -0.4330127  -0.2194063), wk =   0.0039062
        k(   47) = (   0.0000000  -0.4330127  -0.1462709), wk =   0.0039062
        k(   48) = (   0.0000000  -0.4330127  -0.0731354), wk =   0.0039062
        k(   49) = (   0.0000000  -0.2886751   0.0000000), wk =   0.0039062
        k(   50) = (   0.0000000  -0.2886751   0.0731354), wk =   0.0039062
        k(   51) = (   0.0000000  -0.2886751   0.1462709), wk =   0.0039062
        k(   52) = (   0.0000000  -0.2886751   0.2194063), wk =   0.0039062
        k(   53) = (   0.0000000  -0.2886751  -0.2925418), wk =   0.0039062
        k(   54) = (   0.0000000  -0.2886751  -0.2194063), wk =   0.0039062
        k(   55) = (   0.0000000  -0.2886751  -0.1462709), wk =   0.0039062
        k(   56) = (   0.0000000  -0.2886751  -0.0731354), wk =   0.0039062
        k(   57) = (   0.0000000  -0.1443376   0.0000000), wk =   0.0039062
        k(   58) = (   0.0000000  -0.1443376   0.0731354), wk =   0.0039062
        k(   59) = (   0.0000000  -0.1443376   0.1462709), wk =   0.0039062
        k(   60) = (   0.0000000  -0.1443376   0.2194063), wk =   0.0039062
        k(   61) = (   0.0000000  -0.1443376  -0.2925418), wk =   0.0039062
        k(   62) = (   0.0000000  -0.1443376  -0.2194063), wk =   0.0039062
        k(   63) = (   0.0000000  -0.1443376  -0.1462709), wk =   0.0039062
        k(   64) = (   0.0000000  -0.1443376  -0.0731354), wk =   0.0039062
        k(   65) = (   0.1250000   0.0721688   0.0000000), wk =   0.0039062
        k(   66) = (   0.1250000   0.0721688   0.0731354), wk =   0.0039062
        k(   67) = (   0.1250000   0.0721688   0.1462709), wk =   0.0039062
        k(   68) = (   0.1250000   0.0721688   0.2194063), wk =   0.0039062
        k(   69) = (   0.1250000   0.0721688  -0.2925418), wk =   0.0039062
        k(   70) = (   0.1250000   0.0721688  -0.2194063), wk =   0.0039062
        k(   71) = (   0.1250000   0.0721688  -0.1462709), wk =   0.0039062
        k(   72) = (   0.1250000   0.0721688  -0.0731354), wk =   0.0039062
        k(   73) = (   0.1250000   0.2165064   0.0000000), wk =   0.0039062
        k(   74) = (   0.1250000   0.2165064   0.0731354), wk =   0.0039062
        k(   75) = (   0.1250000   0.2165064   0.1462709), wk =   0.0039062
        k(   76) = (   0.1250000   0.2165064   0.2194063), wk =   0.0039062
        k(   77) = (   0.1250000   0.2165064  -0.2925418), wk =   0.0039062
        k(   78) = (   0.1250000   0.2165064  -0.2194063), wk =   0.0039062
        k(   79) = (   0.1250000   0.2165064  -0.1462709), wk =   0.0039062
        k(   80) = (   0.1250000   0.2165064  -0.0731354), wk =   0.0039062
        k(   81) = (   0.1250000   0.3608439   0.0000000), wk =   0.0039062
        k(   82) = (   0.1250000   0.3608439   0.0731354), wk =   0.0039062
        k(   83) = (   0.1250000   0.3608439   0.1462709), wk =   0.0039062
        k(   84) = (   0.1250000   0.3608439   0.2194063), wk =   0.0039062
        k(   85) = (   0.1250000   0.3608439  -0.2925418), wk =   0.0039062
        k(   86) = (   0.1250000   0.3608439  -0.2194063), wk =   0.0039062
        k(   87) = (   0.1250000   0.3608439  -0.1462709), wk =   0.0039062
        k(   88) = (   0.1250000   0.3608439  -0.0731354), wk =   0.0039062
        k(   89) = (   0.1250000   0.5051815   0.0000000), wk =   0.0039062
        k(   90) = (   0.1250000   0.5051815   0.0731354), wk =   0.0039062
        k(   91) = (   0.1250000   0.5051815   0.1462709), wk =   0.0039062
        k(   92) = (   0.1250000   0.5051815   0.2194063), wk =   0.0039062
        k(   93) = (   0.1250000   0.5051815  -0.2925418), wk =   0.0039062
        k(   94) = (   0.1250000   0.5051815  -0.2194063), wk =   0.0039062
        k(   95) = (   0.1250000   0.5051815  -0.1462709), wk =   0.0039062
        k(   96) = (   0.1250000   0.5051815  -0.0731354), wk =   0.0039062
        k(   97) = (   0.1250000  -0.5051815   0.0000000), wk =   0.0039062
        k(   98) = (   0.1250000  -0.5051815   0.0731354), wk =   0.0039062
        k(   99) = (   0.1250000  -0.5051815   0.1462709), wk =   0.0039062
        k(  100) = (   0.1250000  -0.5051815   0.2194063), wk =   0.0039062
        k(  101) = (   0.1250000  -0.5051815  -0.2925418), wk =   0.0039062
        k(  102) = (   0.1250000  -0.5051815  -0.2194063), wk =   0.0039062
        k(  103) = (   0.1250000  -0.5051815  -0.1462709), wk =   0.0039062
        k(  104) = (   0.1250000  -0.5051815  -0.0731354), wk =   0.0039062
        k(  105) = (   0.1250000  -0.3608439   0.0000000), wk =   0.0039062
        k(  106) = (   0.1250000  -0.3608439   0.0731354), wk =   0.0039062
        k(  107) = (   0.1250000  -0.3608439   0.1462709), wk =   0.0039062
        k(  108) = (   0.1250000  -0.3608439   0.2194063), wk =   0.0039062
        k(  109) = (   0.1250000  -0.3608439  -0.2925418), wk =   0.0039062
        k(  110) = (   0.1250000  -0.3608439  -0.2194063), wk =   0.0039062
        k(  111) = (   0.1250000  -0.3608439  -0.1462709), wk =   0.0039062
        k(  112) = (   0.1250000  -0.3608439  -0.0731354), wk =   0.0039062
        k(  113) = (   0.1250000  -0.2165064   0.0000000), wk =   0.0039062
        k(  114) = (   0.1250000  -0.2165064   0.0731354), wk =   0.0039062
        k(  115) = (   0.1250000  -0.2165064   0.1462709), wk =   0.0039062
        k(  116) = (   0.1250000  -0.2165064   0.2194063), wk =   0.0039062
        k(  117) = (   0.1250000  -0.2165064  -0.2925418), wk =   0.0039062
        k(  118) = (   0.1250000  -0.2165064  -0.2194063), wk =   0.0039062
        k(  119) = (   0.1250000  -0.2165064  -0.1462709), wk =   0.0039062
        k(  120) = (   0.1250000  -0.2165064  -0.0731354), wk =   0.0039062
        k(  121) = (   0.1250000  -0.0721688   0.0000000), wk =   0.0039062
        k(  122) = (   0.1250000  -0.0721688   0.0731354), wk =   0.0039062
        k(  123) = (   0.1250000  -0.0721688   0.1462709), wk =   0.0039062
        k(  124) = (   0.1250000  -0.0721688   0.2194063), wk =   0.0039062
        k(  125) = (   0.1250000  -0.0721688  -0.2925418), wk =   0.0039062
        k(  126) = (   0.1250000  -0.0721688  -0.2194063), wk =   0.0039062
        k(  127) = (   0.1250000  -0.0721688  -0.1462709), wk =   0.0039062
        k(  128) = (   0.1250000  -0.0721688  -0.0731354), wk =   0.0039062
        k(  129) = (   0.2500000   0.1443376   0.0000000), wk =   0.0039062
        k(  130) = (   0.2500000   0.1443376   0.0731354), wk =   0.0039062
        k(  131) = (   0.2500000   0.1443376   0.1462709), wk =   0.0039062
        k(  132) = (   0.2500000   0.1443376   0.2194063), wk =   0.0039062
        k(  133) = (   0.2500000   0.1443376  -0.2925418), wk =   0.0039062
        k(  134) = (   0.2500000   0.1443376  -0.2194063), wk =   0.0039062
        k(  135) = (   0.2500000   0.1443376  -0.1462709), wk =   0.0039062
        k(  136) = (   0.2500000   0.1443376  -0.0731354), wk =   0.0039062
        k(  137) = (   0.2500000   0.2886751   0.0000000), wk =   0.0039062
        k(  138) = (   0.2500000   0.2886751   0.0731354), wk =   0.0039062
        k(  139) = (   0.2500000   0.2886751   0.1462709), wk =   0.0039062
        k(  140) = (   0.2500000   0.2886751   0.2194063), wk =   0.0039062
        k(  141) = (   0.2500000   0.2886751  -0.2925418), wk =   0.0039062
        k(  142) = (   0.2500000   0.2886751  -0.2194063), wk =   0.0039062
        k(  143) = (   0.2500000   0.2886751  -0.1462709), wk =   0.0039062
        k(  144) = (   0.2500000   0.2886751  -0.0731354), wk =   0.0039062
        k(  145) = (   0.2500000   0.4330127   0.0000000), wk =   0.0039062
        k(  146) = (   0.2500000   0.4330127   0.0731354), wk =   0.0039062
        k(  147) = (   0.2500000   0.4330127   0.1462709), wk =   0.0039062
        k(  148) = (   0.2500000   0.4330127   0.2194063), wk =   0.0039062
        k(  149) = (   0.2500000   0.4330127  -0.2925418), wk =   0.0039062
        k(  150) = (   0.2500000   0.4330127  -0.2194063), wk =   0.0039062
        k(  151) = (   0.2500000   0.4330127  -0.1462709), wk =   0.0039062
        k(  152) = (   0.2500000   0.4330127  -0.0731354), wk =   0.0039062
        k(  153) = (   0.2500000   0.5773503   0.0000000), wk =   0.0039062
        k(  154) = (   0.2500000   0.5773503   0.0731354), wk =   0.0039062
        k(  155) = (   0.2500000   0.5773503   0.1462709), wk =   0.0039062
        k(  156) = (   0.2500000   0.5773503   0.2194063), wk =   0.0039062
        k(  157) = (   0.2500000   0.5773503  -0.2925418), wk =   0.0039062
        k(  158) = (   0.2500000   0.5773503  -0.2194063), wk =   0.0039062
        k(  159) = (   0.2500000   0.5773503  -0.1462709), wk =   0.0039062
        k(  160) = (   0.2500000   0.5773503  -0.0731354), wk =   0.0039062
        k(  161) = (   0.2500000  -0.4330127   0.0000000), wk =   0.0039062
        k(  162) = (   0.2500000  -0.4330127   0.0731354), wk =   0.0039062
        k(  163) = (   0.2500000  -0.4330127   0.1462709), wk =   0.0039062
        k(  164) = (   0.2500000  -0.4330127   0.2194063), wk =   0.0039062
        k(  165) = (   0.2500000  -0.4330127  -0.2925418), wk =   0.0039062
        k(  166) = (   0.2500000  -0.4330127  -0.2194063), wk =   0.0039062
        k(  167) = (   0.2500000  -0.4330127  -0.1462709), wk =   0.0039062
        k(  168) = (   0.2500000  -0.4330127  -0.0731354), wk =   0.0039062
        k(  169) = (   0.2500000  -0.2886751   0.0000000), wk =   0.0039062
        k(  170) = (   0.2500000  -0.2886751   0.0731354), wk =   0.0039062
        k(  171) = (   0.2500000  -0.2886751   0.1462709), wk =   0.0039062
        k(  172) = (   0.2500000  -0.2886751   0.2194063), wk =   0.0039062
        k(  173) = (   0.2500000  -0.2886751  -0.2925418), wk =   0.0039062
        k(  174) = (   0.2500000  -0.2886751  -0.2194063), wk =   0.0039062
        k(  175) = (   0.2500000  -0.2886751  -0.1462709), wk =   0.0039062
        k(  176) = (   0.2500000  -0.2886751  -0.0731354), wk =   0.0039062
        k(  177) = (   0.2500000  -0.1443376   0.0000000), wk =   0.0039062
        k(  178) = (   0.2500000  -0.1443376   0.0731354), wk =   0.0039062
        k(  179) = (   0.2500000  -0.1443376   0.1462709), wk =   0.0039062
        k(  180) = (   0.2500000  -0.1443376   0.2194063), wk =   0.0039062
        k(  181) = (   0.2500000  -0.1443376  -0.2925418), wk =   0.0039062
        k(  182) = (   0.2500000  -0.1443376  -0.2194063), wk =   0.0039062
        k(  183) = (   0.2500000  -0.1443376  -0.1462709), wk =   0.0039062
        k(  184) = (   0.2500000  -0.1443376  -0.0731354), wk =   0.0039062
        k(  185) = (   0.2500000   0.0000000   0.0000000), wk =   0.0039062
        k(  186) = (   0.2500000   0.0000000   0.0731354), wk =   0.0039062
        k(  187) = (   0.2500000   0.0000000   0.1462709), wk =   0.0039062
        k(  188) = (   0.2500000   0.0000000   0.2194063), wk =   0.0039062
        k(  189) = (   0.2500000   0.0000000  -0.2925418), wk =   0.0039062
        k(  190) = (   0.2500000   0.0000000  -0.2194063), wk =   0.0039062
        k(  191) = (   0.2500000   0.0000000  -0.1462709), wk =   0.0039062
        k(  192) = (   0.2500000   0.0000000  -0.0731354), wk =   0.0039062
        k(  193) = (   0.3750000   0.2165064   0.0000000), wk =   0.0039062
        k(  194) = (   0.3750000   0.2165064   0.0731354), wk =   0.0039062
        k(  195) = (   0.3750000   0.2165064   0.1462709), wk =   0.0039062
        k(  196) = (   0.3750000   0.2165064   0.2194063), wk =   0.0039062
        k(  197) = (   0.3750000   0.2165064  -0.2925418), wk =   0.0039062
        k(  198) = (   0.3750000   0.2165064  -0.2194063), wk =   0.0039062
        k(  199) = (   0.3750000   0.2165064  -0.1462709), wk =   0.0039062
        k(  200) = (   0.3750000   0.2165064  -0.0731354), wk =   0.0039062
        k(  201) = (   0.3750000   0.3608439   0.0000000), wk =   0.0039062
        k(  202) = (   0.3750000   0.3608439   0.0731354), wk =   0.0039062
        k(  203) = (   0.3750000   0.3608439   0.1462709), wk =   0.0039062
        k(  204) = (   0.3750000   0.3608439   0.2194063), wk =   0.0039062
        k(  205) = (   0.3750000   0.3608439  -0.2925418), wk =   0.0039062
        k(  206) = (   0.3750000   0.3608439  -0.2194063), wk =   0.0039062
        k(  207) = (   0.3750000   0.3608439  -0.1462709), wk =   0.0039062
        k(  208) = (   0.3750000   0.3608439  -0.0731354), wk =   0.0039062
        k(  209) = (   0.3750000   0.5051815   0.0000000), wk =   0.0039062
        k(  210) = (   0.3750000   0.5051815   0.0731354), wk =   0.0039062
        k(  211) = (   0.3750000   0.5051815   0.1462709), wk =   0.0039062
        k(  212) = (   0.3750000   0.5051815   0.2194063), wk =   0.0039062
        k(  213) = (   0.3750000   0.5051815  -0.2925418), wk =   0.0039062
        k(  214) = (   0.3750000   0.5051815  -0.2194063), wk =   0.0039062
        k(  215) = (   0.3750000   0.5051815  -0.1462709), wk =   0.0039062
        k(  216) = (   0.3750000   0.5051815  -0.0731354), wk =   0.0039062
        k(  217) = (   0.3750000   0.6495191   0.0000000), wk =   0.0039062
        k(  218) = (   0.3750000   0.6495191   0.0731354), wk =   0.0039062
        k(  219) = (   0.3750000   0.6495191   0.1462709), wk =   0.0039062
        k(  220) = (   0.3750000   0.6495191   0.2194063), wk =   0.0039062
        k(  221) = (   0.3750000   0.6495191  -0.2925418), wk =   0.0039062
        k(  222) = (   0.3750000   0.6495191  -0.2194063), wk =   0.0039062
        k(  223) = (   0.3750000   0.6495191  -0.1462709), wk =   0.0039062
        k(  224) = (   0.3750000   0.6495191  -0.0731354), wk =   0.0039062
        k(  225) = (   0.3750000  -0.3608439   0.0000000), wk =   0.0039062
        k(  226) = (   0.3750000  -0.3608439   0.0731354), wk =   0.0039062
        k(  227) = (   0.3750000  -0.3608439   0.1462709), wk =   0.0039062
        k(  228) = (   0.3750000  -0.3608439   0.2194063), wk =   0.0039062
        k(  229) = (   0.3750000  -0.3608439  -0.2925418), wk =   0.0039062
        k(  230) = (   0.3750000  -0.3608439  -0.2194063), wk =   0.0039062
        k(  231) = (   0.3750000  -0.3608439  -0.1462709), wk =   0.0039062
        k(  232) = (   0.3750000  -0.3608439  -0.0731354), wk =   0.0039062
        k(  233) = (   0.3750000  -0.2165064   0.0000000), wk =   0.0039062
        k(  234) = (   0.3750000  -0.2165064   0.0731354), wk =   0.0039062
        k(  235) = (   0.3750000  -0.2165064   0.1462709), wk =   0.0039062
        k(  236) = (   0.3750000  -0.2165064   0.2194063), wk =   0.0039062
        k(  237) = (   0.3750000  -0.2165064  -0.2925418), wk =   0.0039062
        k(  238) = (   0.3750000  -0.2165064  -0.2194063), wk =   0.0039062
        k(  239) = (   0.3750000  -0.2165064  -0.1462709), wk =   0.0039062
        k(  240) = (   0.3750000  -0.2165064  -0.0731354), wk =   0.0039062
        k(  241) = (   0.3750000  -0.0721688   0.0000000), wk =   0.0039062
        k(  242) = (   0.3750000  -0.0721688   0.0731354), wk =   0.0039062
        k(  243) = (   0.3750000  -0.0721688   0.1462709), wk =   0.0039062
        k(  244) = (   0.3750000  -0.0721688   0.2194063), wk =   0.0039062
        k(  245) = (   0.3750000  -0.0721688  -0.2925418), wk =   0.0039062
        k(  246) = (   0.3750000  -0.0721688  -0.2194063), wk =   0.0039062
        k(  247) = (   0.3750000  -0.0721688  -0.1462709), wk =   0.0039062
        k(  248) = (   0.3750000  -0.0721688  -0.0731354), wk =   0.0039062
        k(  249) = (   0.3750000   0.0721688   0.0000000), wk =   0.0039062
        k(  250) = (   0.3750000   0.0721688   0.0731354), wk =   0.0039062
        k(  251) = (   0.3750000   0.0721688   0.1462709), wk =   0.0039062
        k(  252) = (   0.3750000   0.0721688   0.2194063), wk =   0.0039062
        k(  253) = (   0.3750000   0.0721688  -0.2925418), wk =   0.0039062
        k(  254) = (   0.3750000   0.0721688  -0.2194063), wk =   0.0039062
        k(  255) = (   0.3750000   0.0721688  -0.1462709), wk =   0.0039062
        k(  256) = (   0.3750000   0.0721688  -0.0731354), wk =   0.0039062
        k(  257) = (  -0.5000000  -0.2886751   0.0000000), wk =   0.0039062
        k(  258) = (  -0.5000000  -0.2886751   0.0731354), wk =   0.0039062
        k(  259) = (  -0.5000000  -0.2886751   0.1462709), wk =   0.0039062
        k(  260) = (  -0.5000000  -0.2886751   0.2194063), wk =   0.0039062
        k(  261) = (  -0.5000000  -0.2886751  -0.2925418), wk =   0.0039062
        k(  262) = (  -0.5000000  -0.2886751  -0.2194063), wk =   0.0039062
        k(  263) = (  -0.5000000  -0.2886751  -0.1462709), wk =   0.0039062
        k(  264) = (  -0.5000000  -0.2886751  -0.0731354), wk =   0.0039062
        k(  265) = (  -0.5000000  -0.1443376   0.0000000), wk =   0.0039062
        k(  266) = (  -0.5000000  -0.1443376   0.0731354), wk =   0.0039062
        k(  267) = (  -0.5000000  -0.1443376   0.1462709), wk =   0.0039062
        k(  268) = (  -0.5000000  -0.1443376   0.2194063), wk =   0.0039062
        k(  269) = (  -0.5000000  -0.1443376  -0.2925418), wk =   0.0039062
        k(  270) = (  -0.5000000  -0.1443376  -0.2194063), wk =   0.0039062
        k(  271) = (  -0.5000000  -0.1443376  -0.1462709), wk =   0.0039062
        k(  272) = (  -0.5000000  -0.1443376  -0.0731354), wk =   0.0039062
        k(  273) = (  -0.5000000  -0.0000000   0.0000000), wk =   0.0039062
        k(  274) = (  -0.5000000  -0.0000000   0.0731354), wk =   0.0039062
        k(  275) = (  -0.5000000  -0.0000000   0.1462709), wk =   0.0039062
        k(  276) = (  -0.5000000  -0.0000000   0.2194063), wk =   0.0039062
        k(  277) = (  -0.5000000  -0.0000000  -0.2925418), wk =   0.0039062
        k(  278) = (  -0.5000000  -0.0000000  -0.2194063), wk =   0.0039062
        k(  279) = (  -0.5000000  -0.0000000  -0.1462709), wk =   0.0039062
        k(  280) = (  -0.5000000  -0.0000000  -0.0731354), wk =   0.0039062
        k(  281) = (  -0.5000000   0.1443376   0.0000000), wk =   0.0039062
        k(  282) = (  -0.5000000   0.1443376   0.0731354), wk =   0.0039062
        k(  283) = (  -0.5000000   0.1443376   0.1462709), wk =   0.0039062
        k(  284) = (  -0.5000000   0.1443376   0.2194063), wk =   0.0039062
        k(  285) = (  -0.5000000   0.1443376  -0.2925418), wk =   0.0039062
        k(  286) = (  -0.5000000   0.1443376  -0.2194063), wk =   0.0039062
        k(  287) = (  -0.5000000   0.1443376  -0.1462709), wk =   0.0039062
        k(  288) = (  -0.5000000   0.1443376  -0.0731354), wk =   0.0039062
        k(  289) = (  -0.5000000  -0.8660254   0.0000000), wk =   0.0039062
        k(  290) = (  -0.5000000  -0.8660254   0.0731354), wk =   0.0039062
        k(  291) = (  -0.5000000  -0.8660254   0.1462709), wk =   0.0039062
        k(  292) = (  -0.5000000  -0.8660254   0.2194063), wk =   0.0039062
        k(  293) = (  -0.5000000  -0.8660254  -0.2925418), wk =   0.0039062
        k(  294) = (  -0.5000000  -0.8660254  -0.2194063), wk =   0.0039062
        k(  295) = (  -0.5000000  -0.8660254  -0.1462709), wk =   0.0039062
        k(  296) = (  -0.5000000  -0.8660254  -0.0731354), wk =   0.0039062
        k(  297) = (  -0.5000000  -0.7216878   0.0000000), wk =   0.0039062
        k(  298) = (  -0.5000000  -0.7216878   0.0731354), wk =   0.0039062
        k(  299) = (  -0.5000000  -0.7216878   0.1462709), wk =   0.0039062
        k(  300) = (  -0.5000000  -0.7216878   0.2194063), wk =   0.0039062
        k(  301) = (  -0.5000000  -0.7216878  -0.2925418), wk =   0.0039062
        k(  302) = (  -0.5000000  -0.7216878  -0.2194063), wk =   0.0039062
        k(  303) = (  -0.5000000  -0.7216878  -0.1462709), wk =   0.0039062
        k(  304) = (  -0.5000000  -0.7216878  -0.0731354), wk =   0.0039062
        k(  305) = (  -0.5000000  -0.5773503   0.0000000), wk =   0.0039062
        k(  306) = (  -0.5000000  -0.5773503   0.0731354), wk =   0.0039062
        k(  307) = (  -0.5000000  -0.5773503   0.1462709), wk =   0.0039062
        k(  308) = (  -0.5000000  -0.5773503   0.2194063), wk =   0.0039062
        k(  309) = (  -0.5000000  -0.5773503  -0.2925418), wk =   0.0039062
        k(  310) = (  -0.5000000  -0.5773503  -0.2194063), wk =   0.0039062
        k(  311) = (  -0.5000000  -0.5773503  -0.1462709), wk =   0.0039062
        k(  312) = (  -0.5000000  -0.5773503  -0.0731354), wk =   0.0039062
        k(  313) = (  -0.5000000  -0.4330127   0.0000000), wk =   0.0039062
        k(  314) = (  -0.5000000  -0.4330127   0.0731354), wk =   0.0039062
        k(  315) = (  -0.5000000  -0.4330127   0.1462709), wk =   0.0039062
        k(  316) = (  -0.5000000  -0.4330127   0.2194063), wk =   0.0039062
        k(  317) = (  -0.5000000  -0.4330127  -0.2925418), wk =   0.0039062
        k(  318) = (  -0.5000000  -0.4330127  -0.2194063), wk =   0.0039062
        k(  319) = (  -0.5000000  -0.4330127  -0.1462709), wk =   0.0039062
        k(  320) = (  -0.5000000  -0.4330127  -0.0731354), wk =   0.0039062
        k(  321) = (  -0.3750000  -0.2165064   0.0000000), wk =   0.0039062
        k(  322) = (  -0.3750000  -0.2165064   0.0731354), wk =   0.0039062
        k(  323) = (  -0.3750000  -0.2165064   0.1462709), wk =   0.0039062
        k(  324) = (  -0.3750000  -0.2165064   0.2194063), wk =   0.0039062
        k(  325) = (  -0.3750000  -0.2165064  -0.2925418), wk =   0.0039062
        k(  326) = (  -0.3750000  -0.2165064  -0.2194063), wk =   0.0039062
        k(  327) = (  -0.3750000  -0.2165064  -0.1462709), wk =   0.0039062
        k(  328) = (  -0.3750000  -0.2165064  -0.0731354), wk =   0.0039062
        k(  329) = (  -0.3750000  -0.0721688   0.0000000), wk =   0.0039062
        k(  330) = (  -0.3750000  -0.0721688   0.0731354), wk =   0.0039062
        k(  331) = (  -0.3750000  -0.0721688   0.1462709), wk =   0.0039062
        k(  332) = (  -0.3750000  -0.0721688   0.2194063), wk =   0.0039062
        k(  333) = (  -0.3750000  -0.0721688  -0.2925418), wk =   0.0039062
        k(  334) = (  -0.3750000  -0.0721688  -0.2194063), wk =   0.0039062
        k(  335) = (  -0.3750000  -0.0721688  -0.1462709), wk =   0.0039062
        k(  336) = (  -0.3750000  -0.0721688  -0.0731354), wk =   0.0039062
        k(  337) = (  -0.3750000   0.0721688   0.0000000), wk =   0.0039062
        k(  338) = (  -0.3750000   0.0721688   0.0731354), wk =   0.0039062
        k(  339) = (  -0.3750000   0.0721688   0.1462709), wk =   0.0039062
        k(  340) = (  -0.3750000   0.0721688   0.2194063), wk =   0.0039062
        k(  341) = (  -0.3750000   0.0721688  -0.2925418), wk =   0.0039062
        k(  342) = (  -0.3750000   0.0721688  -0.2194063), wk =   0.0039062
        k(  343) = (  -0.3750000   0.0721688  -0.1462709), wk =   0.0039062
        k(  344) = (  -0.3750000   0.0721688  -0.0731354), wk =   0.0039062
        k(  345) = (  -0.3750000   0.2165064   0.0000000), wk =   0.0039062
        k(  346) = (  -0.3750000   0.2165064   0.0731354), wk =   0.0039062
        k(  347) = (  -0.3750000   0.2165064   0.1462709), wk =   0.0039062
        k(  348) = (  -0.3750000   0.2165064   0.2194063), wk =   0.0039062
        k(  349) = (  -0.3750000   0.2165064  -0.2925418), wk =   0.0039062
        k(  350) = (  -0.3750000   0.2165064  -0.2194063), wk =   0.0039062
        k(  351) = (  -0.3750000   0.2165064  -0.1462709), wk =   0.0039062
        k(  352) = (  -0.3750000   0.2165064  -0.0731354), wk =   0.0039062
        k(  353) = (  -0.3750000  -0.7938566   0.0000000), wk =   0.0039062
        k(  354) = (  -0.3750000  -0.7938566   0.0731354), wk =   0.0039062
        k(  355) = (  -0.3750000  -0.7938566   0.1462709), wk =   0.0039062
        k(  356) = (  -0.3750000  -0.7938566   0.2194063), wk =   0.0039062
        k(  357) = (  -0.3750000  -0.7938566  -0.2925418), wk =   0.0039062
        k(  358) = (  -0.3750000  -0.7938566  -0.2194063), wk =   0.0039062
        k(  359) = (  -0.3750000  -0.7938566  -0.1462709), wk =   0.0039062
        k(  360) = (  -0.3750000  -0.7938566  -0.0731354), wk =   0.0039062
        k(  361) = (  -0.3750000  -0.6495191   0.0000000), wk =   0.0039062
        k(  362) = (  -0.3750000  -0.6495191   0.0731354), wk =   0.0039062
        k(  363) = (  -0.3750000  -0.6495191   0.1462709), wk =   0.0039062
        k(  364) = (  -0.3750000  -0.6495191   0.2194063), wk =   0.0039062
        k(  365) = (  -0.3750000  -0.6495191  -0.2925418), wk =   0.0039062
        k(  366) = (  -0.3750000  -0.6495191  -0.2194063), wk =   0.0039062
        k(  367) = (  -0.3750000  -0.6495191  -0.1462709), wk =   0.0039062
        k(  368) = (  -0.3750000  -0.6495191  -0.0731354), wk =   0.0039062
        k(  369) = (  -0.3750000  -0.5051815   0.0000000), wk =   0.0039062
        k(  370) = (  -0.3750000  -0.5051815   0.0731354), wk =   0.0039062
        k(  371) = (  -0.3750000  -0.5051815   0.1462709), wk =   0.0039062
        k(  372) = (  -0.3750000  -0.5051815   0.2194063), wk =   0.0039062
        k(  373) = (  -0.3750000  -0.5051815  -0.2925418), wk =   0.0039062
        k(  374) = (  -0.3750000  -0.5051815  -0.2194063), wk =   0.0039062
        k(  375) = (  -0.3750000  -0.5051815  -0.1462709), wk =   0.0039062
        k(  376) = (  -0.3750000  -0.5051815  -0.0731354), wk =   0.0039062
        k(  377) = (  -0.3750000  -0.3608439   0.0000000), wk =   0.0039062
        k(  378) = (  -0.3750000  -0.3608439   0.0731354), wk =   0.0039062
        k(  379) = (  -0.3750000  -0.3608439   0.1462709), wk =   0.0039062
        k(  380) = (  -0.3750000  -0.3608439   0.2194063), wk =   0.0039062
        k(  381) = (  -0.3750000  -0.3608439  -0.2925418), wk =   0.0039062
        k(  382) = (  -0.3750000  -0.3608439  -0.2194063), wk =   0.0039062
        k(  383) = (  -0.3750000  -0.3608439  -0.1462709), wk =   0.0039062
        k(  384) = (  -0.3750000  -0.3608439  -0.0731354), wk =   0.0039062
        k(  385) = (  -0.2500000  -0.1443376   0.0000000), wk =   0.0039062
        k(  386) = (  -0.2500000  -0.1443376   0.0731354), wk =   0.0039062
        k(  387) = (  -0.2500000  -0.1443376   0.1462709), wk =   0.0039062
        k(  388) = (  -0.2500000  -0.1443376   0.2194063), wk =   0.0039062
        k(  389) = (  -0.2500000  -0.1443376  -0.2925418), wk =   0.0039062
        k(  390) = (  -0.2500000  -0.1443376  -0.2194063), wk =   0.0039062
        k(  391) = (  -0.2500000  -0.1443376  -0.1462709), wk =   0.0039062
        k(  392) = (  -0.2500000  -0.1443376  -0.0731354), wk =   0.0039062
        k(  393) = (  -0.2500000  -0.0000000   0.0000000), wk =   0.0039062
        k(  394) = (  -0.2500000  -0.0000000   0.0731354), wk =   0.0039062
        k(  395) = (  -0.2500000  -0.0000000   0.1462709), wk =   0.0039062
        k(  396) = (  -0.2500000  -0.0000000   0.2194063), wk =   0.0039062
        k(  397) = (  -0.2500000  -0.0000000  -0.2925418), wk =   0.0039062
        k(  398) = (  -0.2500000  -0.0000000  -0.2194063), wk =   0.0039062
        k(  399) = (  -0.2500000  -0.0000000  -0.1462709), wk =   0.0039062
        k(  400) = (  -0.2500000  -0.0000000  -0.0731354), wk =   0.0039062
        k(  401) = (  -0.2500000   0.1443376   0.0000000), wk =   0.0039062
        k(  402) = (  -0.2500000   0.1443376   0.0731354), wk =   0.0039062
        k(  403) = (  -0.2500000   0.1443376   0.1462709), wk =   0.0039062
        k(  404) = (  -0.2500000   0.1443376   0.2194063), wk =   0.0039062
        k(  405) = (  -0.2500000   0.1443376  -0.2925418), wk =   0.0039062
        k(  406) = (  -0.2500000   0.1443376  -0.2194063), wk =   0.0039062
        k(  407) = (  -0.2500000   0.1443376  -0.1462709), wk =   0.0039062
        k(  408) = (  -0.2500000   0.1443376  -0.0731354), wk =   0.0039062
        k(  409) = (  -0.2500000   0.2886751   0.0000000), wk =   0.0039062
        k(  410) = (  -0.2500000   0.2886751   0.0731354), wk =   0.0039062
        k(  411) = (  -0.2500000   0.2886751   0.1462709), wk =   0.0039062
        k(  412) = (  -0.2500000   0.2886751   0.2194063), wk =   0.0039062
        k(  413) = (  -0.2500000   0.2886751  -0.2925418), wk =   0.0039062
        k(  414) = (  -0.2500000   0.2886751  -0.2194063), wk =   0.0039062
        k(  415) = (  -0.2500000   0.2886751  -0.1462709), wk =   0.0039062
        k(  416) = (  -0.2500000   0.2886751  -0.0731354), wk =   0.0039062
        k(  417) = (  -0.2500000  -0.7216878   0.0000000), wk =   0.0039062
        k(  418) = (  -0.2500000  -0.7216878   0.0731354), wk =   0.0039062
        k(  419) = (  -0.2500000  -0.7216878   0.1462709), wk =   0.0039062
        k(  420) = (  -0.2500000  -0.7216878   0.2194063), wk =   0.0039062
        k(  421) = (  -0.2500000  -0.7216878  -0.2925418), wk =   0.0039062
        k(  422) = (  -0.2500000  -0.7216878  -0.2194063), wk =   0.0039062
        k(  423) = (  -0.2500000  -0.7216878  -0.1462709), wk =   0.0039062
        k(  424) = (  -0.2500000  -0.7216878  -0.0731354), wk =   0.0039062
        k(  425) = (  -0.2500000  -0.5773503   0.0000000), wk =   0.0039062
        k(  426) = (  -0.2500000  -0.5773503   0.0731354), wk =   0.0039062
        k(  427) = (  -0.2500000  -0.5773503   0.1462709), wk =   0.0039062
        k(  428) = (  -0.2500000  -0.5773503   0.2194063), wk =   0.0039062
        k(  429) = (  -0.2500000  -0.5773503  -0.2925418), wk =   0.0039062
        k(  430) = (  -0.2500000  -0.5773503  -0.2194063), wk =   0.0039062
        k(  431) = (  -0.2500000  -0.5773503  -0.1462709), wk =   0.0039062
        k(  432) = (  -0.2500000  -0.5773503  -0.0731354), wk =   0.0039062
        k(  433) = (  -0.2500000  -0.4330127   0.0000000), wk =   0.0039062
        k(  434) = (  -0.2500000  -0.4330127   0.0731354), wk =   0.0039062
        k(  435) = (  -0.2500000  -0.4330127   0.1462709), wk =   0.0039062
        k(  436) = (  -0.2500000  -0.4330127   0.2194063), wk =   0.0039062
        k(  437) = (  -0.2500000  -0.4330127  -0.2925418), wk =   0.0039062
        k(  438) = (  -0.2500000  -0.4330127  -0.2194063), wk =   0.0039062
        k(  439) = (  -0.2500000  -0.4330127  -0.1462709), wk =   0.0039062
        k(  440) = (  -0.2500000  -0.4330127  -0.0731354), wk =   0.0039062
        k(  441) = (  -0.2500000  -0.2886751   0.0000000), wk =   0.0039062
        k(  442) = (  -0.2500000  -0.2886751   0.0731354), wk =   0.0039062
        k(  443) = (  -0.2500000  -0.2886751   0.1462709), wk =   0.0039062
        k(  444) = (  -0.2500000  -0.2886751   0.2194063), wk =   0.0039062
        k(  445) = (  -0.2500000  -0.2886751  -0.2925418), wk =   0.0039062
        k(  446) = (  -0.2500000  -0.2886751  -0.2194063), wk =   0.0039062
        k(  447) = (  -0.2500000  -0.2886751  -0.1462709), wk =   0.0039062
        k(  448) = (  -0.2500000  -0.2886751  -0.0731354), wk =   0.0039062
        k(  449) = (  -0.1250000  -0.0721688   0.0000000), wk =   0.0039062
        k(  450) = (  -0.1250000  -0.0721688   0.0731354), wk =   0.0039062
        k(  451) = (  -0.1250000  -0.0721688   0.1462709), wk =   0.0039062
        k(  452) = (  -0.1250000  -0.0721688   0.2194063), wk =   0.0039062
        k(  453) = (  -0.1250000  -0.0721688  -0.2925418), wk =   0.0039062
        k(  454) = (  -0.1250000  -0.0721688  -0.2194063), wk =   0.0039062
        k(  455) = (  -0.1250000  -0.0721688  -0.1462709), wk =   0.0039062
        k(  456) = (  -0.1250000  -0.0721688  -0.0731354), wk =   0.0039062
        k(  457) = (  -0.1250000   0.0721688   0.0000000), wk =   0.0039062
        k(  458) = (  -0.1250000   0.0721688   0.0731354), wk =   0.0039062
        k(  459) = (  -0.1250000   0.0721688   0.1462709), wk =   0.0039062
        k(  460) = (  -0.1250000   0.0721688   0.2194063), wk =   0.0039062
        k(  461) = (  -0.1250000   0.0721688  -0.2925418), wk =   0.0039062
        k(  462) = (  -0.1250000   0.0721688  -0.2194063), wk =   0.0039062
        k(  463) = (  -0.1250000   0.0721688  -0.1462709), wk =   0.0039062
        k(  464) = (  -0.1250000   0.0721688  -0.0731354), wk =   0.0039062
        k(  465) = (  -0.1250000   0.2165064   0.0000000), wk =   0.0039062
        k(  466) = (  -0.1250000   0.2165064   0.0731354), wk =   0.0039062
        k(  467) = (  -0.1250000   0.2165064   0.1462709), wk =   0.0039062
        k(  468) = (  -0.1250000   0.2165064   0.2194063), wk =   0.0039062
        k(  469) = (  -0.1250000   0.2165064  -0.2925418), wk =   0.0039062
        k(  470) = (  -0.1250000   0.2165064  -0.2194063), wk =   0.0039062
        k(  471) = (  -0.1250000   0.2165064  -0.1462709), wk =   0.0039062
        k(  472) = (  -0.1250000   0.2165064  -0.0731354), wk =   0.0039062
        k(  473) = (  -0.1250000   0.3608439   0.0000000), wk =   0.0039062
        k(  474) = (  -0.1250000   0.3608439   0.0731354), wk =   0.0039062
        k(  475) = (  -0.1250000   0.3608439   0.1462709), wk =   0.0039062
        k(  476) = (  -0.1250000   0.3608439   0.2194063), wk =   0.0039062
        k(  477) = (  -0.1250000   0.3608439  -0.2925418), wk =   0.0039062
        k(  478) = (  -0.1250000   0.3608439  -0.2194063), wk =   0.0039062
        k(  479) = (  -0.1250000   0.3608439  -0.1462709), wk =   0.0039062
        k(  480) = (  -0.1250000   0.3608439  -0.0731354), wk =   0.0039062
        k(  481) = (  -0.1250000  -0.6495191   0.0000000), wk =   0.0039062
        k(  482) = (  -0.1250000  -0.6495191   0.0731354), wk =   0.0039062
        k(  483) = (  -0.1250000  -0.6495191   0.1462709), wk =   0.0039062
        k(  484) = (  -0.1250000  -0.6495191   0.2194063), wk =   0.0039062
        k(  485) = (  -0.1250000  -0.6495191  -0.2925418), wk =   0.0039062
        k(  486) = (  -0.1250000  -0.6495191  -0.2194063), wk =   0.0039062
        k(  487) = (  -0.1250000  -0.6495191  -0.1462709), wk =   0.0039062
        k(  488) = (  -0.1250000  -0.6495191  -0.0731354), wk =   0.0039062
        k(  489) = (  -0.1250000  -0.5051815   0.0000000), wk =   0.0039062
        k(  490) = (  -0.1250000  -0.5051815   0.0731354), wk =   0.0039062
        k(  491) = (  -0.1250000  -0.5051815   0.1462709), wk =   0.0039062
        k(  492) = (  -0.1250000  -0.5051815   0.2194063), wk =   0.0039062
        k(  493) = (  -0.1250000  -0.5051815  -0.2925418), wk =   0.0039062
        k(  494) = (  -0.1250000  -0.5051815  -0.2194063), wk =   0.0039062
        k(  495) = (  -0.1250000  -0.5051815  -0.1462709), wk =   0.0039062
        k(  496) = (  -0.1250000  -0.5051815  -0.0731354), wk =   0.0039062
        k(  497) = (  -0.1250000  -0.3608439   0.0000000), wk =   0.0039062
        k(  498) = (  -0.1250000  -0.3608439   0.0731354), wk =   0.0039062
        k(  499) = (  -0.1250000  -0.3608439   0.1462709), wk =   0.0039062
        k(  500) = (  -0.1250000  -0.3608439   0.2194063), wk =   0.0039062
        k(  501) = (  -0.1250000  -0.3608439  -0.2925418), wk =   0.0039062
        k(  502) = (  -0.1250000  -0.3608439  -0.2194063), wk =   0.0039062
        k(  503) = (  -0.1250000  -0.3608439  -0.1462709), wk =   0.0039062
        k(  504) = (  -0.1250000  -0.3608439  -0.0731354), wk =   0.0039062
        k(  505) = (  -0.1250000  -0.2165064   0.0000000), wk =   0.0039062
        k(  506) = (  -0.1250000  -0.2165064   0.0731354), wk =   0.0039062
        k(  507) = (  -0.1250000  -0.2165064   0.1462709), wk =   0.0039062
        k(  508) = (  -0.1250000  -0.2165064   0.2194063), wk =   0.0039062
        k(  509) = (  -0.1250000  -0.2165064  -0.2925418), wk =   0.0039062
        k(  510) = (  -0.1250000  -0.2165064  -0.2194063), wk =   0.0039062
        k(  511) = (  -0.1250000  -0.2165064  -0.1462709), wk =   0.0039062
        k(  512) = (  -0.1250000  -0.2165064  -0.0731354), wk =   0.0039062

                       cryst. coord.
        k(    1) = (   0.0000000   0.0000000   0.0000000), wk =   0.0039062
        k(    2) = (   0.0000000   0.0000000   0.1250000), wk =   0.0039062
        k(    3) = (   0.0000000   0.0000000   0.2500000), wk =   0.0039062
        k(    4) = (   0.0000000   0.0000000   0.3750000), wk =   0.0039062
        k(    5) = (   0.0000000   0.0000000  -0.5000000), wk =   0.0039062
        k(    6) = (   0.0000000   0.0000000  -0.3750000), wk =   0.0039062
        k(    7) = (   0.0000000   0.0000000  -0.2500000), wk =   0.0039062
        k(    8) = (   0.0000000   0.0000000  -0.1250000), wk =   0.0039062
        k(    9) = (   0.0000000   0.1250000   0.0000000), wk =   0.0039062
        k(   10) = (   0.0000000   0.1250000   0.1250000), wk =   0.0039062
        k(   11) = (   0.0000000   0.1250000   0.2500000), wk =   0.0039062
        k(   12) = (   0.0000000   0.1250000   0.3750000), wk =   0.0039062
        k(   13) = (   0.0000000   0.1250000  -0.5000000), wk =   0.0039062
        k(   14) = (   0.0000000   0.1250000  -0.3750000), wk =   0.0039062
        k(   15) = (   0.0000000   0.1250000  -0.2500000), wk =   0.0039062
        k(   16) = (   0.0000000   0.1250000  -0.1250000), wk =   0.0039062
        k(   17) = (   0.0000000   0.2500000   0.0000000), wk =   0.0039062
        k(   18) = (   0.0000000   0.2500000   0.1250000), wk =   0.0039062
        k(   19) = (   0.0000000   0.2500000   0.2500000), wk =   0.0039062
        k(   20) = (   0.0000000   0.2500000   0.3750000), wk =   0.0039062
        k(   21) = (   0.0000000   0.2500000  -0.5000000), wk =   0.0039062
        k(   22) = (   0.0000000   0.2500000  -0.3750000), wk =   0.0039062
        k(   23) = (   0.0000000   0.2500000  -0.2500000), wk =   0.0039062
        k(   24) = (   0.0000000   0.2500000  -0.1250000), wk =   0.0039062
        k(   25) = (   0.0000000   0.3750000   0.0000000), wk =   0.0039062
        k(   26) = (   0.0000000   0.3750000   0.1250000), wk =   0.0039062
        k(   27) = (   0.0000000   0.3750000   0.2500000), wk =   0.0039062
        k(   28) = (   0.0000000   0.3750000   0.3750000), wk =   0.0039062
        k(   29) = (   0.0000000   0.3750000  -0.5000000), wk =   0.0039062
        k(   30) = (   0.0000000   0.3750000  -0.3750000), wk =   0.0039062
        k(   31) = (   0.0000000   0.3750000  -0.2500000), wk =   0.0039062
        k(   32) = (   0.0000000   0.3750000  -0.1250000), wk =   0.0039062
        k(   33) = (   0.0000000  -0.5000000   0.0000000), wk =   0.0039062
        k(   34) = (   0.0000000  -0.5000000   0.1250000), wk =   0.0039062
        k(   35) = (   0.0000000  -0.5000000   0.2500000), wk =   0.0039062
        k(   36) = (   0.0000000  -0.5000000   0.3750000), wk =   0.0039062
        k(   37) = (   0.0000000  -0.5000000  -0.5000000), wk =   0.0039062
        k(   38) = (   0.0000000  -0.5000000  -0.3750000), wk =   0.0039062
        k(   39) = (   0.0000000  -0.5000000  -0.2500000), wk =   0.0039062
        k(   40) = (   0.0000000  -0.5000000  -0.1250000), wk =   0.0039062
        k(   41) = (   0.0000000  -0.3750000   0.0000000), wk =   0.0039062
        k(   42) = (   0.0000000  -0.3750000   0.1250000), wk =   0.0039062
        k(   43) = (   0.0000000  -0.3750000   0.2500000), wk =   0.0039062
        k(   44) = (   0.0000000  -0.3750000   0.3750000), wk =   0.0039062
        k(   45) = (   0.0000000  -0.3750000  -0.5000000), wk =   0.0039062
        k(   46) = (   0.0000000  -0.3750000  -0.3750000), wk =   0.0039062
        k(   47) = (   0.0000000  -0.3750000  -0.2500000), wk =   0.0039062
        k(   48) = (   0.0000000  -0.3750000  -0.1250000), wk =   0.0039062
        k(   49) = (   0.0000000  -0.2500000   0.0000000), wk =   0.0039062
        k(   50) = (   0.0000000  -0.2500000   0.1250000), wk =   0.0039062
        k(   51) = (   0.0000000  -0.2500000   0.2500000), wk =   0.0039062
        k(   52) = (   0.0000000  -0.2500000   0.3750000), wk =   0.0039062
        k(   53) = (   0.0000000  -0.2500000  -0.5000000), wk =   0.0039062
        k(   54) = (   0.0000000  -0.2500000  -0.3750000), wk =   0.0039062
        k(   55) = (   0.0000000  -0.2500000  -0.2500000), wk =   0.0039062
        k(   56) = (   0.0000000  -0.2500000  -0.1250000), wk =   0.0039062
        k(   57) = (   0.0000000  -0.1250000   0.0000000), wk =   0.0039062
        k(   58) = (   0.0000000  -0.1250000   0.1250000), wk =   0.0039062
        k(   59) = (   0.0000000  -0.1250000   0.2500000), wk =   0.0039062
        k(   60) = (   0.0000000  -0.1250000   0.3750000), wk =   0.0039062
        k(   61) = (   0.0000000  -0.1250000  -0.5000000), wk =   0.0039062
        k(   62) = (   0.0000000  -0.1250000  -0.3750000), wk =   0.0039062
        k(   63) = (   0.0000000  -0.1250000  -0.2500000), wk =   0.0039062
        k(   64) = (   0.0000000  -0.1250000  -0.1250000), wk =   0.0039062
        k(   65) = (   0.1250000   0.0000000   0.0000000), wk =   0.0039062
        k(   66) = (   0.1250000   0.0000000   0.1250000), wk =   0.0039062
        k(   67) = (   0.1250000   0.0000000   0.2500000), wk =   0.0039062
        k(   68) = (   0.1250000   0.0000000   0.3750000), wk =   0.0039062
        k(   69) = (   0.1250000   0.0000000  -0.5000000), wk =   0.0039062
        k(   70) = (   0.1250000   0.0000000  -0.3750000), wk =   0.0039062
        k(   71) = (   0.1250000   0.0000000  -0.2500000), wk =   0.0039062
        k(   72) = (   0.1250000   0.0000000  -0.1250000), wk =   0.0039062
        k(   73) = (   0.1250000   0.1250000   0.0000000), wk =   0.0039062
        k(   74) = (   0.1250000   0.1250000   0.1250000), wk =   0.0039062
        k(   75) = (   0.1250000   0.1250000   0.2500000), wk =   0.0039062
        k(   76) = (   0.1250000   0.1250000   0.3750000), wk =   0.0039062
        k(   77) = (   0.1250000   0.1250000  -0.5000000), wk =   0.0039062
        k(   78) = (   0.1250000   0.1250000  -0.3750000), wk =   0.0039062
        k(   79) = (   0.1250000   0.1250000  -0.2500000), wk =   0.0039062
        k(   80) = (   0.1250000   0.1250000  -0.1250000), wk =   0.0039062
        k(   81) = (   0.1250000   0.2500000   0.0000000), wk =   0.0039062
        k(   82) = (   0.1250000   0.2500000   0.1250000), wk =   0.0039062
        k(   83) = (   0.1250000   0.2500000   0.2500000), wk =   0.0039062
        k(   84) = (   0.1250000   0.2500000   0.3750000), wk =   0.0039062
        k(   85) = (   0.1250000   0.2500000  -0.5000000), wk =   0.0039062
        k(   86) = (   0.1250000   0.2500000  -0.3750000), wk =   0.0039062
        k(   87) = (   0.1250000   0.2500000  -0.2500000), wk =   0.0039062
        k(   88) = (   0.1250000   0.2500000  -0.1250000), wk =   0.0039062
        k(   89) = (   0.1250000   0.3750000   0.0000000), wk =   0.0039062
        k(   90) = (   0.1250000   0.3750000   0.1250000), wk =   0.0039062
        k(   91) = (   0.1250000   0.3750000   0.2500000), wk =   0.0039062
        k(   92) = (   0.1250000   0.3750000   0.3750000), wk =   0.0039062
        k(   93) = (   0.1250000   0.3750000  -0.5000000), wk =   0.0039062
        k(   94) = (   0.1250000   0.3750000  -0.3750000), wk =   0.0039062
        k(   95) = (   0.1250000   0.3750000  -0.2500000), wk =   0.0039062
        k(   96) = (   0.1250000   0.3750000  -0.1250000), wk =   0.0039062
        k(   97) = (   0.1250000  -0.5000000   0.0000000), wk =   0.0039062
        k(   98) = (   0.1250000  -0.5000000   0.1250000), wk =   0.0039062
        k(   99) = (   0.1250000  -0.5000000   0.2500000), wk =   0.0039062
        k(  100) = (   0.1250000  -0.5000000   0.3750000), wk =   0.0039062
        k(  101) = (   0.1250000  -0.5000000  -0.5000000), wk =   0.0039062
        k(  102) = (   0.1250000  -0.5000000  -0.3750000), wk =   0.0039062
        k(  103) = (   0.1250000  -0.5000000  -0.2500000), wk =   0.0039062
        k(  104) = (   0.1250000  -0.5000000  -0.1250000), wk =   0.0039062
        k(  105) = (   0.1250000  -0.3750000   0.0000000), wk =   0.0039062
        k(  106) = (   0.1250000  -0.3750000   0.1250000), wk =   0.0039062
        k(  107) = (   0.1250000  -0.3750000   0.2500000), wk =   0.0039062
        k(  108) = (   0.1250000  -0.3750000   0.3750000), wk =   0.0039062
        k(  109) = (   0.1250000  -0.3750000  -0.5000000), wk =   0.0039062
        k(  110) = (   0.1250000  -0.3750000  -0.3750000), wk =   0.0039062
        k(  111) = (   0.1250000  -0.3750000  -0.2500000), wk =   0.0039062
        k(  112) = (   0.1250000  -0.3750000  -0.1250000), wk =   0.0039062
        k(  113) = (   0.1250000  -0.2500000   0.0000000), wk =   0.0039062
        k(  114) = (   0.1250000  -0.2500000   0.1250000), wk =   0.0039062
        k(  115) = (   0.1250000  -0.2500000   0.2500000), wk =   0.0039062
        k(  116) = (   0.1250000  -0.2500000   0.3750000), wk =   0.0039062
        k(  117) = (   0.1250000  -0.2500000  -0.5000000), wk =   0.0039062
        k(  118) = (   0.1250000  -0.2500000  -0.3750000), wk =   0.0039062
        k(  119) = (   0.1250000  -0.2500000  -0.2500000), wk =   0.0039062
        k(  120) = (   0.1250000  -0.2500000  -0.1250000), wk =   0.0039062
        k(  121) = (   0.1250000  -0.1250000   0.0000000), wk =   0.0039062
        k(  122) = (   0.1250000  -0.1250000   0.1250000), wk =   0.0039062
        k(  123) = (   0.1250000  -0.1250000   0.2500000), wk =   0.0039062
        k(  124) = (   0.1250000  -0.1250000   0.3750000), wk =   0.0039062
        k(  125) = (   0.1250000  -0.1250000  -0.5000000), wk =   0.0039062
        k(  126) = (   0.1250000  -0.1250000  -0.3750000), wk =   0.0039062
        k(  127) = (   0.1250000  -0.1250000  -0.2500000), wk =   0.0039062
        k(  128) = (   0.1250000  -0.1250000  -0.1250000), wk =   0.0039062
        k(  129) = (   0.2500000   0.0000000   0.0000000), wk =   0.0039062
        k(  130) = (   0.2500000   0.0000000   0.1250000), wk =   0.0039062
        k(  131) = (   0.2500000   0.0000000   0.2500000), wk =   0.0039062
        k(  132) = (   0.2500000   0.0000000   0.3750000), wk =   0.0039062
        k(  133) = (   0.2500000   0.0000000  -0.5000000), wk =   0.0039062
        k(  134) = (   0.2500000   0.0000000  -0.3750000), wk =   0.0039062
        k(  135) = (   0.2500000   0.0000000  -0.2500000), wk =   0.0039062
        k(  136) = (   0.2500000   0.0000000  -0.1250000), wk =   0.0039062
        k(  137) = (   0.2500000   0.1250000   0.0000000), wk =   0.0039062
        k(  138) = (   0.2500000   0.1250000   0.1250000), wk =   0.0039062
        k(  139) = (   0.2500000   0.1250000   0.2500000), wk =   0.0039062
        k(  140) = (   0.2500000   0.1250000   0.3750000), wk =   0.0039062
        k(  141) = (   0.2500000   0.1250000  -0.5000000), wk =   0.0039062
        k(  142) = (   0.2500000   0.1250000  -0.3750000), wk =   0.0039062
        k(  143) = (   0.2500000   0.1250000  -0.2500000), wk =   0.0039062
        k(  144) = (   0.2500000   0.1250000  -0.1250000), wk =   0.0039062
        k(  145) = (   0.2500000   0.2500000   0.0000000), wk =   0.0039062
        k(  146) = (   0.2500000   0.2500000   0.1250000), wk =   0.0039062
        k(  147) = (   0.2500000   0.2500000   0.2500000), wk =   0.0039062
        k(  148) = (   0.2500000   0.2500000   0.3750000), wk =   0.0039062
        k(  149) = (   0.2500000   0.2500000  -0.5000000), wk =   0.0039062
        k(  150) = (   0.2500000   0.2500000  -0.3750000), wk =   0.0039062
        k(  151) = (   0.2500000   0.2500000  -0.2500000), wk =   0.0039062
        k(  152) = (   0.2500000   0.2500000  -0.1250000), wk =   0.0039062
        k(  153) = (   0.2500000   0.3750000   0.0000000), wk =   0.0039062
        k(  154) = (   0.2500000   0.3750000   0.1250000), wk =   0.0039062
        k(  155) = (   0.2500000   0.3750000   0.2500000), wk =   0.0039062
        k(  156) = (   0.2500000   0.3750000   0.3750000), wk =   0.0039062
        k(  157) = (   0.2500000   0.3750000  -0.5000000), wk =   0.0039062
        k(  158) = (   0.2500000   0.3750000  -0.3750000), wk =   0.0039062
        k(  159) = (   0.2500000   0.3750000  -0.2500000), wk =   0.0039062
        k(  160) = (   0.2500000   0.3750000  -0.1250000), wk =   0.0039062
        k(  161) = (   0.2500000  -0.5000000   0.0000000), wk =   0.0039062
        k(  162) = (   0.2500000  -0.5000000   0.1250000), wk =   0.0039062
        k(  163) = (   0.2500000  -0.5000000   0.2500000), wk =   0.0039062
        k(  164) = (   0.2500000  -0.5000000   0.3750000), wk =   0.0039062
        k(  165) = (   0.2500000  -0.5000000  -0.5000000), wk =   0.0039062
        k(  166) = (   0.2500000  -0.5000000  -0.3750000), wk =   0.0039062
        k(  167) = (   0.2500000  -0.5000000  -0.2500000), wk =   0.0039062
        k(  168) = (   0.2500000  -0.5000000  -0.1250000), wk =   0.0039062
        k(  169) = (   0.2500000  -0.3750000   0.0000000), wk =   0.0039062
        k(  170) = (   0.2500000  -0.3750000   0.1250000), wk =   0.0039062
        k(  171) = (   0.2500000  -0.3750000   0.2500000), wk =   0.0039062
        k(  172) = (   0.2500000  -0.3750000   0.3750000), wk =   0.0039062
        k(  173) = (   0.2500000  -0.3750000  -0.5000000), wk =   0.0039062
        k(  174) = (   0.2500000  -0.3750000  -0.3750000), wk =   0.0039062
        k(  175) = (   0.2500000  -0.3750000  -0.2500000), wk =   0.0039062
        k(  176) = (   0.2500000  -0.3750000  -0.1250000), wk =   0.0039062
        k(  177) = (   0.2500000  -0.2500000   0.0000000), wk =   0.0039062
        k(  178) = (   0.2500000  -0.2500000   0.1250000), wk =   0.0039062
        k(  179) = (   0.2500000  -0.2500000   0.2500000), wk =   0.0039062
        k(  180) = (   0.2500000  -0.2500000   0.3750000), wk =   0.0039062
        k(  181) = (   0.2500000  -0.2500000  -0.5000000), wk =   0.0039062
        k(  182) = (   0.2500000  -0.2500000  -0.3750000), wk =   0.0039062
        k(  183) = (   0.2500000  -0.2500000  -0.2500000), wk =   0.0039062
        k(  184) = (   0.2500000  -0.2500000  -0.1250000), wk =   0.0039062
        k(  185) = (   0.2500000  -0.1250000   0.0000000), wk =   0.0039062
        k(  186) = (   0.2500000  -0.1250000   0.1250000), wk =   0.0039062
        k(  187) = (   0.2500000  -0.1250000   0.2500000), wk =   0.0039062
        k(  188) = (   0.2500000  -0.1250000   0.3750000), wk =   0.0039062
        k(  189) = (   0.2500000  -0.1250000  -0.5000000), wk =   0.0039062
        k(  190) = (   0.2500000  -0.1250000  -0.3750000), wk =   0.0039062
        k(  191) = (   0.2500000  -0.1250000  -0.2500000), wk =   0.0039062
        k(  192) = (   0.2500000  -0.1250000  -0.1250000), wk =   0.0039062
        k(  193) = (   0.3750000   0.0000000   0.0000000), wk =   0.0039062
        k(  194) = (   0.3750000   0.0000000   0.1250000), wk =   0.0039062
        k(  195) = (   0.3750000   0.0000000   0.2500000), wk =   0.0039062
        k(  196) = (   0.3750000   0.0000000   0.3750000), wk =   0.0039062
        k(  197) = (   0.3750000   0.0000000  -0.5000000), wk =   0.0039062
        k(  198) = (   0.3750000   0.0000000  -0.3750000), wk =   0.0039062
        k(  199) = (   0.3750000   0.0000000  -0.2500000), wk =   0.0039062
        k(  200) = (   0.3750000   0.0000000  -0.1250000), wk =   0.0039062
        k(  201) = (   0.3750000   0.1250000   0.0000000), wk =   0.0039062
        k(  202) = (   0.3750000   0.1250000   0.1250000), wk =   0.0039062
        k(  203) = (   0.3750000   0.1250000   0.2500000), wk =   0.0039062
        k(  204) = (   0.3750000   0.1250000   0.3750000), wk =   0.0039062
        k(  205) = (   0.3750000   0.1250000  -0.5000000), wk =   0.0039062
        k(  206) = (   0.3750000   0.1250000  -0.3750000), wk =   0.0039062
        k(  207) = (   0.3750000   0.1250000  -0.2500000), wk =   0.0039062
        k(  208) = (   0.3750000   0.1250000  -0.1250000), wk =   0.0039062
        k(  209) = (   0.3750000   0.2500000   0.0000000), wk =   0.0039062
        k(  210) = (   0.3750000   0.2500000   0.1250000), wk =   0.0039062
        k(  211) = (   0.3750000   0.2500000   0.2500000), wk =   0.0039062
        k(  212) = (   0.3750000   0.2500000   0.3750000), wk =   0.0039062
        k(  213) = (   0.3750000   0.2500000  -0.5000000), wk =   0.0039062
        k(  214) = (   0.3750000   0.2500000  -0.3750000), wk =   0.0039062
        k(  215) = (   0.3750000   0.2500000  -0.2500000), wk =   0.0039062
        k(  216) = (   0.3750000   0.2500000  -0.1250000), wk =   0.0039062
        k(  217) = (   0.3750000   0.3750000   0.0000000), wk =   0.0039062
        k(  218) = (   0.3750000   0.3750000   0.1250000), wk =   0.0039062
        k(  219) = (   0.3750000   0.3750000   0.2500000), wk =   0.0039062
        k(  220) = (   0.3750000   0.3750000   0.3750000), wk =   0.0039062
        k(  221) = (   0.3750000   0.3750000  -0.5000000), wk =   0.0039062
        k(  222) = (   0.3750000   0.3750000  -0.3750000), wk =   0.0039062
        k(  223) = (   0.3750000   0.3750000  -0.2500000), wk =   0.0039062
        k(  224) = (   0.3750000   0.3750000  -0.1250000), wk =   0.0039062
        k(  225) = (   0.3750000  -0.5000000   0.0000000), wk =   0.0039062
        k(  226) = (   0.3750000  -0.5000000   0.1250000), wk =   0.0039062
        k(  227) = (   0.3750000  -0.5000000   0.2500000), wk =   0.0039062
        k(  228) = (   0.3750000  -0.5000000   0.3750000), wk =   0.0039062
        k(  229) = (   0.3750000  -0.5000000  -0.5000000), wk =   0.0039062
        k(  230) = (   0.3750000  -0.5000000  -0.3750000), wk =   0.0039062
        k(  231) = (   0.3750000  -0.5000000  -0.2500000), wk =   0.0039062
        k(  232) = (   0.3750000  -0.5000000  -0.1250000), wk =   0.0039062
        k(  233) = (   0.3750000  -0.3750000   0.0000000), wk =   0.0039062
        k(  234) = (   0.3750000  -0.3750000   0.1250000), wk =   0.0039062
        k(  235) = (   0.3750000  -0.3750000   0.2500000), wk =   0.0039062
        k(  236) = (   0.3750000  -0.3750000   0.3750000), wk =   0.0039062
        k(  237) = (   0.3750000  -0.3750000  -0.5000000), wk =   0.0039062
        k(  238) = (   0.3750000  -0.3750000  -0.3750000), wk =   0.0039062
        k(  239) = (   0.3750000  -0.3750000  -0.2500000), wk =   0.0039062
        k(  240) = (   0.3750000  -0.3750000  -0.1250000), wk =   0.0039062
        k(  241) = (   0.3750000  -0.2500000   0.0000000), wk =   0.0039062
        k(  242) = (   0.3750000  -0.2500000   0.1250000), wk =   0.0039062
        k(  243) = (   0.3750000  -0.2500000   0.2500000), wk =   0.0039062
        k(  244) = (   0.3750000  -0.2500000   0.3750000), wk =   0.0039062
        k(  245) = (   0.3750000  -0.2500000  -0.5000000), wk =   0.0039062
        k(  246) = (   0.3750000  -0.2500000  -0.3750000), wk =   0.0039062
        k(  247) = (   0.3750000  -0.2500000  -0.2500000), wk =   0.0039062
        k(  248) = (   0.3750000  -0.2500000  -0.1250000), wk =   0.0039062
        k(  249) = (   0.3750000  -0.1250000   0.0000000), wk =   0.0039062
        k(  250) = (   0.3750000  -0.1250000   0.1250000), wk =   0.0039062
        k(  251) = (   0.3750000  -0.1250000   0.2500000), wk =   0.0039062
        k(  252) = (   0.3750000  -0.1250000   0.3750000), wk =   0.0039062
        k(  253) = (   0.3750000  -0.1250000  -0.5000000), wk =   0.0039062
        k(  254) = (   0.3750000  -0.1250000  -0.3750000), wk =   0.0039062
        k(  255) = (   0.3750000  -0.1250000  -0.2500000), wk =   0.0039062
        k(  256) = (   0.3750000  -0.1250000  -0.1250000), wk =   0.0039062
        k(  257) = (  -0.5000000   0.0000000   0.0000000), wk =   0.0039062
        k(  258) = (  -0.5000000   0.0000000   0.1250000), wk =   0.0039062
        k(  259) = (  -0.5000000   0.0000000   0.2500000), wk =   0.0039062
        k(  260) = (  -0.5000000   0.0000000   0.3750000), wk =   0.0039062
        k(  261) = (  -0.5000000   0.0000000  -0.5000000), wk =   0.0039062
        k(  262) = (  -0.5000000   0.0000000  -0.3750000), wk =   0.0039062
        k(  263) = (  -0.5000000   0.0000000  -0.2500000), wk =   0.0039062
        k(  264) = (  -0.5000000   0.0000000  -0.1250000), wk =   0.0039062
        k(  265) = (  -0.5000000   0.1250000   0.0000000), wk =   0.0039062
        k(  266) = (  -0.5000000   0.1250000   0.1250000), wk =   0.0039062
        k(  267) = (  -0.5000000   0.1250000   0.2500000), wk =   0.0039062
        k(  268) = (  -0.5000000   0.1250000   0.3750000), wk =   0.0039062
        k(  269) = (  -0.5000000   0.1250000  -0.5000000), wk =   0.0039062
        k(  270) = (  -0.5000000   0.1250000  -0.3750000), wk =   0.0039062
        k(  271) = (  -0.5000000   0.1250000  -0.2500000), wk =   0.0039062
        k(  272) = (  -0.5000000   0.1250000  -0.1250000), wk =   0.0039062
        k(  273) = (  -0.5000000   0.2500000   0.0000000), wk =   0.0039062
        k(  274) = (  -0.5000000   0.2500000   0.1250000), wk =   0.0039062
        k(  275) = (  -0.5000000   0.2500000   0.2500000), wk =   0.0039062
        k(  276) = (  -0.5000000   0.2500000   0.3750000), wk =   0.0039062
        k(  277) = (  -0.5000000   0.2500000  -0.5000000), wk =   0.0039062
        k(  278) = (  -0.5000000   0.2500000  -0.3750000), wk =   0.0039062
        k(  279) = (  -0.5000000   0.2500000  -0.2500000), wk =   0.0039062
        k(  280) = (  -0.5000000   0.2500000  -0.1250000), wk =   0.0039062
        k(  281) = (  -0.5000000   0.3750000   0.0000000), wk =   0.0039062
        k(  282) = (  -0.5000000   0.3750000   0.1250000), wk =   0.0039062
        k(  283) = (  -0.5000000   0.3750000   0.2500000), wk =   0.0039062
        k(  284) = (  -0.5000000   0.3750000   0.3750000), wk =   0.0039062
        k(  285) = (  -0.5000000   0.3750000  -0.5000000), wk =   0.0039062
        k(  286) = (  -0.5000000   0.3750000  -0.3750000), wk =   0.0039062
        k(  287) = (  -0.5000000   0.3750000  -0.2500000), wk =   0.0039062
        k(  288) = (  -0.5000000   0.3750000  -0.1250000), wk =   0.0039062
        k(  289) = (  -0.5000000  -0.5000000   0.0000000), wk =   0.0039062
        k(  290) = (  -0.5000000  -0.5000000   0.1250000), wk =   0.0039062
        k(  291) = (  -0.5000000  -0.5000000   0.2500000), wk =   0.0039062
        k(  292) = (  -0.5000000  -0.5000000   0.3750000), wk =   0.0039062
        k(  293) = (  -0.5000000  -0.5000000  -0.5000000), wk =   0.0039062
        k(  294) = (  -0.5000000  -0.5000000  -0.3750000), wk =   0.0039062
        k(  295) = (  -0.5000000  -0.5000000  -0.2500000), wk =   0.0039062
        k(  296) = (  -0.5000000  -0.5000000  -0.1250000), wk =   0.0039062
        k(  297) = (  -0.5000000  -0.3750000   0.0000000), wk =   0.0039062
        k(  298) = (  -0.5000000  -0.3750000   0.1250000), wk =   0.0039062
        k(  299) = (  -0.5000000  -0.3750000   0.2500000), wk =   0.0039062
        k(  300) = (  -0.5000000  -0.3750000   0.3750000), wk =   0.0039062
        k(  301) = (  -0.5000000  -0.3750000  -0.5000000), wk =   0.0039062
        k(  302) = (  -0.5000000  -0.3750000  -0.3750000), wk =   0.0039062
        k(  303) = (  -0.5000000  -0.3750000  -0.2500000), wk =   0.0039062
        k(  304) = (  -0.5000000  -0.3750000  -0.1250000), wk =   0.0039062
        k(  305) = (  -0.5000000  -0.2500000   0.0000000), wk =   0.0039062
        k(  306) = (  -0.5000000  -0.2500000   0.1250000), wk =   0.0039062
        k(  307) = (  -0.5000000  -0.2500000   0.2500000), wk =   0.0039062
        k(  308) = (  -0.5000000  -0.2500000   0.3750000), wk =   0.0039062
        k(  309) = (  -0.5000000  -0.2500000  -0.5000000), wk =   0.0039062
        k(  310) = (  -0.5000000  -0.2500000  -0.3750000), wk =   0.0039062
        k(  311) = (  -0.5000000  -0.2500000  -0.2500000), wk =   0.0039062
        k(  312) = (  -0.5000000  -0.2500000  -0.1250000), wk =   0.0039062
        k(  313) = (  -0.5000000  -0.1250000   0.0000000), wk =   0.0039062
        k(  314) = (  -0.5000000  -0.1250000   0.1250000), wk =   0.0039062
        k(  315) = (  -0.5000000  -0.1250000   0.2500000), wk =   0.0039062
        k(  316) = (  -0.5000000  -0.1250000   0.3750000), wk =   0.0039062
        k(  317) = (  -0.5000000  -0.1250000  -0.5000000), wk =   0.0039062
        k(  318) = (  -0.5000000  -0.1250000  -0.3750000), wk =   0.0039062
        k(  319) = (  -0.5000000  -0.1250000  -0.2500000), wk =   0.0039062
        k(  320) = (  -0.5000000  -0.1250000  -0.1250000), wk =   0.0039062
        k(  321) = (  -0.3750000   0.0000000   0.0000000), wk =   0.0039062
        k(  322) = (  -0.3750000   0.0000000   0.1250000), wk =   0.0039062
        k(  323) = (  -0.3750000   0.0000000   0.2500000), wk =   0.0039062
        k(  324) = (  -0.3750000   0.0000000   0.3750000), wk =   0.0039062
        k(  325) = (  -0.3750000   0.0000000  -0.5000000), wk =   0.0039062
        k(  326) = (  -0.3750000   0.0000000  -0.3750000), wk =   0.0039062
        k(  327) = (  -0.3750000   0.0000000  -0.2500000), wk =   0.0039062
        k(  328) = (  -0.3750000   0.0000000  -0.1250000), wk =   0.0039062
        k(  329) = (  -0.3750000   0.1250000   0.0000000), wk =   0.0039062
        k(  330) = (  -0.3750000   0.1250000   0.1250000), wk =   0.0039062
        k(  331) = (  -0.3750000   0.1250000   0.2500000), wk =   0.0039062
        k(  332) = (  -0.3750000   0.1250000   0.3750000), wk =   0.0039062
        k(  333) = (  -0.3750000   0.1250000  -0.5000000), wk =   0.0039062
        k(  334) = (  -0.3750000   0.1250000  -0.3750000), wk =   0.0039062
        k(  335) = (  -0.3750000   0.1250000  -0.2500000), wk =   0.0039062
        k(  336) = (  -0.3750000   0.1250000  -0.1250000), wk =   0.0039062
        k(  337) = (  -0.3750000   0.2500000   0.0000000), wk =   0.0039062
        k(  338) = (  -0.3750000   0.2500000   0.1250000), wk =   0.0039062
        k(  339) = (  -0.3750000   0.2500000   0.2500000), wk =   0.0039062
        k(  340) = (  -0.3750000   0.2500000   0.3750000), wk =   0.0039062
        k(  341) = (  -0.3750000   0.2500000  -0.5000000), wk =   0.0039062
        k(  342) = (  -0.3750000   0.2500000  -0.3750000), wk =   0.0039062
        k(  343) = (  -0.3750000   0.2500000  -0.2500000), wk =   0.0039062
        k(  344) = (  -0.3750000   0.2500000  -0.1250000), wk =   0.0039062
        k(  345) = (  -0.3750000   0.3750000   0.0000000), wk =   0.0039062
        k(  346) = (  -0.3750000   0.3750000   0.1250000), wk =   0.0039062
        k(  347) = (  -0.3750000   0.3750000   0.2500000), wk =   0.0039062
        k(  348) = (  -0.3750000   0.3750000   0.3750000), wk =   0.0039062
        k(  349) = (  -0.3750000   0.3750000  -0.5000000), wk =   0.0039062
        k(  350) = (  -0.3750000   0.3750000  -0.3750000), wk =   0.0039062
        k(  351) = (  -0.3750000   0.3750000  -0.2500000), wk =   0.0039062
        k(  352) = (  -0.3750000   0.3750000  -0.1250000), wk =   0.0039062
        k(  353) = (  -0.3750000  -0.5000000   0.0000000), wk =   0.0039062
        k(  354) = (  -0.3750000  -0.5000000   0.1250000), wk =   0.0039062
        k(  355) = (  -0.3750000  -0.5000000   0.2500000), wk =   0.0039062
        k(  356) = (  -0.3750000  -0.5000000   0.3750000), wk =   0.0039062
        k(  357) = (  -0.3750000  -0.5000000  -0.5000000), wk =   0.0039062
        k(  358) = (  -0.3750000  -0.5000000  -0.3750000), wk =   0.0039062
        k(  359) = (  -0.3750000  -0.5000000  -0.2500000), wk =   0.0039062
        k(  360) = (  -0.3750000  -0.5000000  -0.1250000), wk =   0.0039062
        k(  361) = (  -0.3750000  -0.3750000   0.0000000), wk =   0.0039062
        k(  362) = (  -0.3750000  -0.3750000   0.1250000), wk =   0.0039062
        k(  363) = (  -0.3750000  -0.3750000   0.2500000), wk =   0.0039062
        k(  364) = (  -0.3750000  -0.3750000   0.3750000), wk =   0.0039062
        k(  365) = (  -0.3750000  -0.3750000  -0.5000000), wk =   0.0039062
        k(  366) = (  -0.3750000  -0.3750000  -0.3750000), wk =   0.0039062
        k(  367) = (  -0.3750000  -0.3750000  -0.2500000), wk =   0.0039062
        k(  368) = (  -0.3750000  -0.3750000  -0.1250000), wk =   0.0039062
        k(  369) = (  -0.3750000  -0.2500000   0.0000000), wk =   0.0039062
        k(  370) = (  -0.3750000  -0.2500000   0.1250000), wk =   0.0039062
        k(  371) = (  -0.3750000  -0.2500000   0.2500000), wk =   0.0039062
        k(  372) = (  -0.3750000  -0.2500000   0.3750000), wk =   0.0039062
        k(  373) = (  -0.3750000  -0.2500000  -0.5000000), wk =   0.0039062
        k(  374) = (  -0.3750000  -0.2500000  -0.3750000), wk =   0.0039062
        k(  375) = (  -0.3750000  -0.2500000  -0.2500000), wk =   0.0039062
        k(  376) = (  -0.3750000  -0.2500000  -0.1250000), wk =   0.0039062
        k(  377) = (  -0.3750000  -0.1250000   0.0000000), wk =   0.0039062
        k(  378) = (  -0.3750000  -0.1250000   0.1250000), wk =   0.0039062
        k(  379) = (  -0.3750000  -0.1250000   0.2500000), wk =   0.0039062
        k(  380) = (  -0.3750000  -0.1250000   0.3750000), wk =   0.0039062
        k(  381) = (  -0.3750000  -0.1250000  -0.5000000), wk =   0.0039062
        k(  382) = (  -0.3750000  -0.1250000  -0.3750000), wk =   0.0039062
        k(  383) = (  -0.3750000  -0.1250000  -0.2500000), wk =   0.0039062
        k(  384) = (  -0.3750000  -0.1250000  -0.1250000), wk =   0.0039062
        k(  385) = (  -0.2500000   0.0000000   0.0000000), wk =   0.0039062
        k(  386) = (  -0.2500000   0.0000000   0.1250000), wk =   0.0039062
        k(  387) = (  -0.2500000   0.0000000   0.2500000), wk =   0.0039062
        k(  388) = (  -0.2500000   0.0000000   0.3750000), wk =   0.0039062
        k(  389) = (  -0.2500000   0.0000000  -0.5000000), wk =   0.0039062
        k(  390) = (  -0.2500000   0.0000000  -0.3750000), wk =   0.0039062
        k(  391) = (  -0.2500000   0.0000000  -0.2500000), wk =   0.0039062
        k(  392) = (  -0.2500000   0.0000000  -0.1250000), wk =   0.0039062
        k(  393) = (  -0.2500000   0.1250000   0.0000000), wk =   0.0039062
        k(  394) = (  -0.2500000   0.1250000   0.1250000), wk =   0.0039062
        k(  395) = (  -0.2500000   0.1250000   0.2500000), wk =   0.0039062
        k(  396) = (  -0.2500000   0.1250000   0.3750000), wk =   0.0039062
        k(  397) = (  -0.2500000   0.1250000  -0.5000000), wk =   0.0039062
        k(  398) = (  -0.2500000   0.1250000  -0.3750000), wk =   0.0039062
        k(  399) = (  -0.2500000   0.1250000  -0.2500000), wk =   0.0039062
        k(  400) = (  -0.2500000   0.1250000  -0.1250000), wk =   0.0039062
        k(  401) = (  -0.2500000   0.2500000   0.0000000), wk =   0.0039062
        k(  402) = (  -0.2500000   0.2500000   0.1250000), wk =   0.0039062
        k(  403) = (  -0.2500000   0.2500000   0.2500000), wk =   0.0039062
        k(  404) = (  -0.2500000   0.2500000   0.3750000), wk =   0.0039062
        k(  405) = (  -0.2500000   0.2500000  -0.5000000), wk =   0.0039062
        k(  406) = (  -0.2500000   0.2500000  -0.3750000), wk =   0.0039062
        k(  407) = (  -0.2500000   0.2500000  -0.2500000), wk =   0.0039062
        k(  408) = (  -0.2500000   0.2500000  -0.1250000), wk =   0.0039062
        k(  409) = (  -0.2500000   0.3750000   0.0000000), wk =   0.0039062
        k(  410) = (  -0.2500000   0.3750000   0.1250000), wk =   0.0039062
        k(  411) = (  -0.2500000   0.3750000   0.2500000), wk =   0.0039062
        k(  412) = (  -0.2500000   0.3750000   0.3750000), wk =   0.0039062
        k(  413) = (  -0.2500000   0.3750000  -0.5000000), wk =   0.0039062
        k(  414) = (  -0.2500000   0.3750000  -0.3750000), wk =   0.0039062
        k(  415) = (  -0.2500000   0.3750000  -0.2500000), wk =   0.0039062
        k(  416) = (  -0.2500000   0.3750000  -0.1250000), wk =   0.0039062
        k(  417) = (  -0.2500000  -0.5000000   0.0000000), wk =   0.0039062
        k(  418) = (  -0.2500000  -0.5000000   0.1250000), wk =   0.0039062
        k(  419) = (  -0.2500000  -0.5000000   0.2500000), wk =   0.0039062
        k(  420) = (  -0.2500000  -0.5000000   0.3750000), wk =   0.0039062
        k(  421) = (  -0.2500000  -0.5000000  -0.5000000), wk =   0.0039062
        k(  422) = (  -0.2500000  -0.5000000  -0.3750000), wk =   0.0039062
        k(  423) = (  -0.2500000  -0.5000000  -0.2500000), wk =   0.0039062
        k(  424) = (  -0.2500000  -0.5000000  -0.1250000), wk =   0.0039062
        k(  425) = (  -0.2500000  -0.3750000   0.0000000), wk =   0.0039062
        k(  426) = (  -0.2500000  -0.3750000   0.1250000), wk =   0.0039062
        k(  427) = (  -0.2500000  -0.3750000   0.2500000), wk =   0.0039062
        k(  428) = (  -0.2500000  -0.3750000   0.3750000), wk =   0.0039062
        k(  429) = (  -0.2500000  -0.3750000  -0.5000000), wk =   0.0039062
        k(  430) = (  -0.2500000  -0.3750000  -0.3750000), wk =   0.0039062
        k(  431) = (  -0.2500000  -0.3750000  -0.2500000), wk =   0.0039062
        k(  432) = (  -0.2500000  -0.3750000  -0.1250000), wk =   0.0039062
        k(  433) = (  -0.2500000  -0.2500000   0.0000000), wk =   0.0039062
        k(  434) = (  -0.2500000  -0.2500000   0.1250000), wk =   0.0039062
        k(  435) = (  -0.2500000  -0.2500000   0.2500000), wk =   0.0039062
        k(  436) = (  -0.2500000  -0.2500000   0.3750000), wk =   0.0039062
        k(  437) = (  -0.2500000  -0.2500000  -0.5000000), wk =   0.0039062
        k(  438) = (  -0.2500000  -0.2500000  -0.3750000), wk =   0.0039062
        k(  439) = (  -0.2500000  -0.2500000  -0.2500000), wk =   0.0039062
        k(  440) = (  -0.2500000  -0.2500000  -0.1250000), wk =   0.0039062
        k(  441) = (  -0.2500000  -0.1250000   0.0000000), wk =   0.0039062
        k(  442) = (  -0.2500000  -0.1250000   0.1250000), wk =   0.0039062
        k(  443) = (  -0.2500000  -0.1250000   0.2500000), wk =   0.0039062
        k(  444) = (  -0.2500000  -0.1250000   0.3750000), wk =   0.0039062
        k(  445) = (  -0.2500000  -0.1250000  -0.5000000), wk =   0.0039062
        k(  446) = (  -0.2500000  -0.1250000  -0.3750000), wk =   0.0039062
        k(  447) = (  -0.2500000  -0.1250000  -0.2500000), wk =   0.0039062
        k(  448) = (  -0.2500000  -0.1250000  -0.1250000), wk =   0.0039062
        k(  449) = (  -0.1250000   0.0000000   0.0000000), wk =   0.0039062
        k(  450) = (  -0.1250000   0.0000000   0.1250000), wk =   0.0039062
        k(  451) = (  -0.1250000   0.0000000   0.2500000), wk =   0.0039062
        k(  452) = (  -0.1250000   0.0000000   0.3750000), wk =   0.0039062
        k(  453) = (  -0.1250000   0.0000000  -0.5000000), wk =   0.0039062
        k(  454) = (  -0.1250000   0.0000000  -0.3750000), wk =   0.0039062
        k(  455) = (  -0.1250000   0.0000000  -0.2500000), wk =   0.0039062
        k(  456) = (  -0.1250000   0.0000000  -0.1250000), wk =   0.0039062
        k(  457) = (  -0.1250000   0.1250000   0.0000000), wk =   0.0039062
        k(  458) = (  -0.1250000   0.1250000   0.1250000), wk =   0.0039062
        k(  459) = (  -0.1250000   0.1250000   0.2500000), wk =   0.0039062
        k(  460) = (  -0.1250000   0.1250000   0.3750000), wk =   0.0039062
        k(  461) = (  -0.1250000   0.1250000  -0.5000000), wk =   0.0039062
        k(  462) = (  -0.1250000   0.1250000  -0.3750000), wk =   0.0039062
        k(  463) = (  -0.1250000   0.1250000  -0.2500000), wk =   0.0039062
        k(  464) = (  -0.1250000   0.1250000  -0.1250000), wk =   0.0039062
        k(  465) = (  -0.1250000   0.2500000   0.0000000), wk =   0.0039062
        k(  466) = (  -0.1250000   0.2500000   0.1250000), wk =   0.0039062
        k(  467) = (  -0.1250000   0.2500000   0.2500000), wk =   0.0039062
        k(  468) = (  -0.1250000   0.2500000   0.3750000), wk =   0.0039062
        k(  469) = (  -0.1250000   0.2500000  -0.5000000), wk =   0.0039062
        k(  470) = (  -0.1250000   0.2500000  -0.3750000), wk =   0.0039062
        k(  471) = (  -0.1250000   0.2500000  -0.2500000), wk =   0.0039062
        k(  472) = (  -0.1250000   0.2500000  -0.1250000), wk =   0.0039062
        k(  473) = (  -0.1250000   0.3750000   0.0000000), wk =   0.0039062
        k(  474) = (  -0.1250000   0.3750000   0.1250000), wk =   0.0039062
        k(  475) = (  -0.1250000   0.3750000   0.2500000), wk =   0.0039062
        k(  476) = (  -0.1250000   0.3750000   0.3750000), wk =   0.0039062
        k(  477) = (  -0.1250000   0.3750000  -0.5000000), wk =   0.0039062
        k(  478) = (  -0.1250000   0.3750000  -0.3750000), wk =   0.0039062
        k(  479) = (  -0.1250000   0.3750000  -0.2500000), wk =   0.0039062
        k(  480) = (  -0.1250000   0.3750000  -0.1250000), wk =   0.0039062
        k(  481) = (  -0.1250000  -0.5000000   0.0000000), wk =   0.0039062
        k(  482) = (  -0.1250000  -0.5000000   0.1250000), wk =   0.0039062
        k(  483) = (  -0.1250000  -0.5000000   0.2500000), wk =   0.0039062
        k(  484) = (  -0.1250000  -0.5000000   0.3750000), wk =   0.0039062
        k(  485) = (  -0.1250000  -0.5000000  -0.5000000), wk =   0.0039062
        k(  486) = (  -0.1250000  -0.5000000  -0.3750000), wk =   0.0039062
        k(  487) = (  -0.1250000  -0.5000000  -0.2500000), wk =   0.0039062
[...]

    -4.5957   0.5835   9.1272  12.9939  15.3645  16.0154  19.1242  19.3720

     occupation numbers 
     1.0000   1.0000   1.0000   0.0000   0.0000   0.0000   0.0000   0.0000

          k =-0.1250 0.0722-0.1463 (   815 PWs)   bands (ev):

    -4.7232   1.2489   7.3604  13.3132  15.9316  16.9139  19.3383  19.9128

     occupation numbers 
     1.0000   1.0000   1.0000   0.0000   0.0000   0.0000   0.0000   0.0000

          k =-0.1250 0.0722-0.0731 (   820 PWs)   bands (ev):

    -4.8383   2.1933   5.7198  13.4018  15.8665  17.9936  20.2990  20.5000

     occupation numbers 
     1.0000   1.0000   1.0000   0.0000   0.0000   0.0000   0.0000   0.0000

          k =-0.1250 0.2165 0.0000 (   819 PWs)   bands (ev):

    -4.0655   3.6890   5.5568  11.0677  12.2021  18.6140  18.7764  20.6925

     occupation numbers 
     1.0000   1.0000   1.0000   0.0000   0.0000   0.0000   0.0000   0.0000

          k =-0.1250 0.2165 0.0731 (   820 PWs)   bands (ev):

    -4.0217   3.0223   6.4059  11.1721  12.2293  18.0462  18.4293  19.9171

     occupation numbers 
     1.0000   1.0000   1.0000   0.0000   0.0000   0.0000   0.0000   0.0000

          k =-0.1250 0.2165 0.1463 (   819 PWs)   bands (ev):

    -3.9084   2.0791   7.9355  11.3481  12.3129  17.1261  17.6386  18.4353

     occupation numbers 
     1.0000   1.0000   1.0000   0.0000   0.0000   0.0000   0.0000   0.0000

          k =-0.1250 0.2165 0.2194 (   824 PWs)   bands (ev):

    -3.7825   1.4109   9.4671  11.5905  12.4171  15.4817  17.0320  17.6698

     occupation numbers 
     1.0000   1.0000   1.0000   0.0000   0.0000   0.0000   0.0000   0.0000

          k =-0.1250 0.2165-0.2925 (   820 PWs)   bands (ev):

    -3.7255   1.1660  10.4288  11.4718  12.5358  14.5211  16.8721  17.4541

     occupation numbers 
     1.0000   1.0000   0.0001   0.0000   0.0000   0.0000   0.0000   0.0000

          k =-0.1250 0.2165-0.2194 (   824 PWs)   bands (ev):

    -3.7815   1.3999   9.8501  10.9938  12.4628  15.6316  17.1606  17.6775

     occupation numbers 
     1.0000   1.0000   1.0000   0.0000   0.0000   0.0000   0.0000   0.0000

          k =-0.1250 0.2165-0.1463 (   819 PWs)   bands (ev):

    -3.9072   2.0571   8.1299  11.0204  12.3414  17.0766  17.9337  18.5314

     occupation numbers 
     1.0000   1.0000   1.0000   0.0000   0.0000   0.0000   0.0000   0.0000

          k =-0.1250 0.2165-0.0731 (   820 PWs)   bands (ev):

    -4.0210   2.9912   6.5055  11.0314  12.2405  18.0407  18.6101  19.9869

     occupation numbers 
     1.0000   1.0000   1.0000   0.0000   0.0000   0.0000   0.0000   0.0000

          k =-0.1250 0.3608 0.0000 (   829 PWs)   bands (ev):

    -2.4474   5.2098   6.8514   7.4343  10.2166  14.6115  16.6087  17.7038

     occupation numbers 
     1.0000   1.0000   1.0000   1.0000   0.1754   0.0000   0.0000   0.0000

          k =-0.1250 0.3608 0.0731 (   826 PWs)   bands (ev):

    -2.4051   4.6135   6.8979   8.1949  10.2762  14.2732  16.4086  18.0115

     occupation numbers 
     1.0000   1.0000   1.0000   1.0000   0.0205   0.0000   0.0000   0.0000

          k =-0.1250 0.3608 0.1463 (   828 PWs)   bands (ev):

    -2.2951   3.6941   7.0809   9.5146  10.4503  13.5716  16.0148  18.7612

     occupation numbers 
     1.0000   1.0000   1.0000   1.0000   0.0000   0.0000   0.0000   0.0000

          k =-0.1250 0.3608 0.2194 (   831 PWs)   bands (ev):

    -2.1728   3.0348   7.2215  10.2741  11.1784  13.1754  15.6297  17.1187

     occupation numbers 
     1.0000   1.0000   1.0000   0.0222   0.0000   0.0000   0.0000   0.0000

          k =-0.1250 0.3608-0.2925 (   834 PWs)   bands (ev):

    -2.1173   2.7895   7.2956  10.3758  11.8776  12.8807  15.6789  16.2871

     occupation numbers 
     1.0000   1.0000   1.0000   0.0004   0.0000   0.0000   0.0000   0.0000

          k =-0.1250 0.3608-0.2194 (   831 PWs)   bands (ev):

    -2.1712   3.0116   7.2830  10.3232  11.3621  12.5577  15.8877  17.5438

     occupation numbers 
     1.0000   1.0000   1.0000   0.0033   0.0000   0.0000   0.0000   0.0000

          k =-0.1250 0.3608-0.1463 (   828 PWs)   bands (ev):

    -2.2931   3.6441   7.2197   9.5946  10.3490  13.1597  16.4112  18.7755

     occupation numbers 
     1.0000   1.0000   1.0000   1.0000   0.0012   0.0000   0.0000   0.0000

          k =-0.1250 0.3608-0.0731 (   826 PWs)   bands (ev):

    -2.4039   4.5338   7.1711   8.0511  10.2378  13.9760  17.0933  17.7259

     occupation numbers 
     1.0000   1.0000   1.0000   1.0000   0.0851   0.0000   0.0000   0.0000

          k =-0.1250-0.6495 0.0000 (   835 PWs)   bands (ev):

    -0.1065   3.2789   7.5845   9.1419   9.4598  11.0486  13.3404  16.8214

     occupation numbers 
     1.0000   1.0000   1.0000   1.0000   1.0000   0.0000   0.0000   0.0000

          k =-0.1250-0.6495 0.0731 (   834 PWs)   bands (ev):

    -0.0670   3.3217   7.0007   9.2144   9.5427  11.3195  13.8849  16.4787

     occupation numbers 
     1.0000   1.0000   1.0000   1.0000   1.0000   0.0000   0.0000   0.0000

          k =-0.1250-0.6495 0.1463 (   830 PWs)   bands (ev):

     0.0367   3.4231   6.0995   9.1238   9.4310  12.2862  14.9510  16.2554

     occupation numbers 
     1.0000   1.0000   1.0000   1.0000   1.0000   0.0000   0.0000   0.0000

          k =-0.1250-0.6495 0.2194 (   825 PWs)   bands (ev):

     0.1516   3.5286   5.4647   8.6437   9.5632  13.4570  15.3072  17.2368

     occupation numbers 
     1.0000   1.0000   1.0000   1.0000   1.0000   0.0000   0.0000   0.0000

          k =-0.1250-0.6495-0.2925 (   834 PWs)   bands (ev):

     0.2041   3.5673   5.2377   8.4601   9.6407  13.8266  15.5573  18.0348

     occupation numbers 
     1.0000   1.0000   1.0000   1.0000   1.0000   0.0000   0.0000   0.0000

          k =-0.1250-0.6495-0.2194 (   825 PWs)   bands (ev):

     0.1545   3.5138   5.4565   8.6732   9.6541  13.1855  15.3458  17.3703

     occupation numbers 
     1.0000   1.0000   1.0000   1.0000   1.0000   0.0000   0.0000   0.0000

          k =-0.1250-0.6495-0.1463 (   830 PWs)   bands (ev):

     0.0404   3.4077   6.0634   9.1519   9.7322  11.7523  15.6509  15.8095

     occupation numbers 
     1.0000   1.0000   1.0000   1.0000   1.0000   0.0000   0.0000   0.0000

          k =-0.1250-0.6495-0.0731 (   834 PWs)   bands (ev):

    -0.0645   3.3131   6.9198   9.3628  10.2415  10.3390  14.1923  16.4665

     occupation numbers 
     1.0000   1.0000   1.0000   1.0000   0.0746   0.0018   0.0000   0.0000

          k =-0.1250-0.5052 0.0000 (   835 PWs)   bands (ev):

    -0.1149   3.3016   7.6408   8.8545   9.6645  11.0500  13.3691  16.8585

     occupation numbers 
     1.0000   1.0000   1.0000   1.0000   1.0000   0.0000   0.0000   0.0000

          k =-0.1250-0.5052 0.0731 (   834 PWs)   bands (ev):

    -0.0737   3.3360   6.9856   9.0657  10.2763  10.5101  14.1955  16.4558

     occupation numbers 
     1.0000   1.0000   1.0000   1.0000   0.0204   0.0000   0.0000   0.0000

          k =-0.1250-0.5052 0.1463 (   830 PWs)   bands (ev):

     0.0309   3.4316   6.0942   9.0624   9.6688  11.8521  15.3753  16.1935

     occupation numbers 
     1.0000   1.0000   1.0000   1.0000   1.0000   0.0000   0.0000   0.0000

          k =-0.1250-0.5052 0.2194 (   825 PWs)   bands (ev):

     0.1452   3.5394   5.4660   8.6394   9.6132  13.2248  15.4008  17.5000

     occupation numbers 
     1.0000   1.0000   1.0000   1.0000   1.0000   0.0000   0.0000   0.0000

          k =-0.1250-0.5052-0.2925 (   834 PWs)   bands (ev):

     0.1956   3.5945   5.2336   8.4148   9.6684  13.9465  15.3577  18.0270

     occupation numbers 
     1.0000   1.0000   1.0000   1.0000   1.0000   0.0000   0.0000   0.0000

          k =-0.1250-0.5052-0.2194 (   825 PWs)   bands (ev):

     0.1439   3.5540   5.4490   8.5587   9.6863  13.5980  14.9335  17.3815

     occupation numbers 
     1.0000   1.0000   1.0000   1.0000   1.0000   0.0000   0.0000   0.0000

          k =-0.1250-0.5052-0.1463 (   830 PWs)   bands (ev):

     0.0293   3.4472   6.0727   8.9285   9.7243  12.2315  14.8572  16.3112

     occupation numbers 
     1.0000   1.0000   1.0000   1.0000   1.0000   0.0000   0.0000   0.0000

          k =-0.1250-0.5052-0.0731 (   834 PWs)   bands (ev):

    -0.0747   3.3448   6.9658   9.1236   9.7275  11.2423  13.8921  16.5706

     occupation numbers 
     1.0000   1.0000   1.0000   1.0000   1.0000   0.0000   0.0000   0.0000

          k =-0.1250-0.3608 0.0000 (   829 PWs)   bands (ev):

    -2.4523   5.2506   6.8269   7.4567  10.1467  14.6108  16.5744  17.9628

     occupation numbers 
     1.0000   1.0000   1.0000   1.0000   0.7637   0.0000   0.0000   0.0000

          k =-0.1250-0.3608 0.0731 (   826 PWs)   bands (ev):

    -2.4092   4.5755   7.1930   7.9590  10.2592  14.0070  16.7492  18.2939

     occupation numbers 
     1.0000   1.0000   1.0000   1.0000   0.0389   0.0000   0.0000   0.0000

          k =-0.1250-0.3608 0.1463 (   828 PWs)   bands (ev):

    -2.2986   3.6676   7.2660   9.2858  10.6079  13.2030  16.2561  18.7578

     occupation numbers 
     1.0000   1.0000   1.0000   1.0000   0.0000   0.0000   0.0000   0.0000

          k =-0.1250-0.3608 0.2194 (   831 PWs)   bands (ev):

    -2.1765   3.0237   7.3400  10.0026  11.6886  12.5950  15.7923  17.2368

     occupation numbers 
     1.0000   1.0000   1.0000   0.9989   0.0000   0.0000   0.0000   0.0000

          k =-0.1250-0.3608-0.2925 (   834 PWs)   bands (ev):

    -2.1220   2.7930   7.3613  10.1789  12.1029  12.9085  15.3301  16.4114

     occupation numbers 
     1.0000   1.0000   1.0000   0.4804   0.0000   0.0000   0.0000   0.0000

          k =-0.1250-0.3608-0.2194 (   831 PWs)   bands (ev):

    -2.1769   3.0316   7.2935  10.1877  11.2326  13.1346  15.4673  17.3247

     occupation numbers 
     1.0000   1.0000   1.0000   0.3957   0.0000   0.0000   0.0000   0.0000

          k =-0.1250-0.3608-0.1463 (   828 PWs)   bands (ev):

    -2.2992   3.6855   7.1565   9.6569  10.2009  13.5651  16.0171  18.6276

     occupation numbers 
     1.0000   1.0000   1.0000   1.0000   0.2819   0.0000   0.0000   0.0000

          k =-0.1250-0.3608-0.0731 (   826 PWs)   bands (ev):

    -2.4096   4.6078   6.9694   8.2260  10.1341  14.2651  16.4987  18.2604

     occupation numbers 
     1.0000   1.0000   1.0000   1.0000   0.8409   0.0000   0.0000   0.0000

          k =-0.1250-0.2165 0.0000 (   819 PWs)   bands (ev):

    -4.0680   3.6988   5.5476  11.4178  11.8255  18.4053  18.7002  20.5042

     occupation numbers 
     1.0000   1.0000   1.0000   0.0000   0.0000   0.0000   0.0000   0.0000

          k =-0.1250-0.2165 0.0731 (   820 PWs)   bands (ev):

    -4.0240   3.0114   6.4509  11.4638  11.8460  18.0751  18.3825  19.9035

     occupation numbers 
     1.0000   1.0000   1.0000   0.0000   0.0000   0.0000   0.0000   0.0000

          k =-0.1250-0.2165 0.1463 (   819 PWs)   bands (ev):

    -3.9104   2.0701   8.0288  11.5719  11.9201  17.1883  17.7816  18.2900

     occupation numbers 
     1.0000   1.0000   1.0000   0.0000   0.0000   0.0000   0.0000   0.0000

          k =-0.1250-0.2165 0.2194 (   824 PWs)   bands (ev):

    -3.7845   1.4064   9.6273  11.7377  12.0266  15.5346  17.3163  17.4155

     occupation numbers 
     1.0000   1.0000   1.0000   0.0000   0.0000   0.0000   0.0000   0.0000

          k =-0.1250-0.2165-0.2925 (   820 PWs)   bands (ev):

    -3.7280   1.1667  10.4409  11.7865  12.2794  14.4002  17.1532  17.1711

     occupation numbers 
     1.0000   1.0000   0.0000   0.0000   0.0000   0.0000   0.0000   0.0000

          k =-0.1250-0.2165-0.2194 (   824 PWs)   bands (ev):

    -3.7846   1.4065   9.6368  11.6128  12.1547  15.5136  17.3494  17.3976

     occupation numbers 
     1.0000   1.0000   1.0000   0.0000   0.0000   0.0000   0.0000   0.0000

          k =-0.1250-0.2165-0.1463 (   819 PWs)   bands (ev):

    -3.9104   2.0702   8.0313  11.5036  11.9922  17.1598  17.8287  18.2820

     occupation numbers 
     1.0000   1.0000   1.0000   0.0000   0.0000   0.0000   0.0000   0.0000

          k =-0.1250-0.2165-0.0731 (   820 PWs)   bands (ev):

    -4.0240   3.0116   6.4515  11.4348  11.8771  18.0495  18.4422  19.8334

     occupation numbers 
     1.0000   1.0000   1.0000   0.0000   0.0000   0.0000   0.0000   0.0000

     the Fermi energy is    10.1769 ev

!    total energy              =     -15.64488455 Ry
     estimated scf accuracy    <       0.01284285 Ry
     smearing contrib. (-TS)   =      -0.00018314 Ry
     internal energy E=F+TS    =     -15.64470142 Ry

     The total energy is F=E-TS. E is the sum of the following terms:
     one-electron contribution =       6.55077167 Ry
     hartree contribution      =       1.19246304 Ry
     xc contribution           =      -5.05778978 Ry
     ewald contribution        =     -18.33014635 Ry

     convergence has been achieved in   3 iterations

     Forces acting on atoms (cartesian axes, Ry/au):

     atom    1 type  1   force =    -0.08107724    0.04645469    0.27898142
     atom    2 type  1   force =     0.08107724   -0.04645469   -0.27898142
     The non-local contrib.  to forces
     atom    1 type  1   force =    -0.17481350    0.10273965    0.40772959
     atom    2 type  1   force =     0.17479849   -0.10273743   -0.40773244
     The ionic contribution  to forces
     atom    1 type  1   force =    -0.18120336    0.10666054    2.54945539
     atom    2 type  1   force =     0.18120336   -0.10666054   -2.54945539
     The local contribution  to forces
     atom    1 type  1   force =     0.27885978   -0.16534700   -2.56587305
     atom    2 type  1   force =    -0.27884554    0.16534483    2.56588073
     The core correction contribution to forces
     atom    1 type  1   force =     0.00000000    0.00000000    0.00000000
     atom    2 type  1   force =     0.00000000    0.00000000    0.00000000
     The Hubbard contrib.    to forces
     atom    1 type  1   force =     0.00000000    0.00000000    0.00000000
     atom    2 type  1   force =     0.00000000    0.00000000    0.00000000
     The SCF correction term to forces
     atom    1 type  1   force =    -0.00392057    0.00240166   -0.11232910
     atom    2 type  1   force =     0.00392051   -0.00240141    0.11232710

     Total force =     0.416082     Total SCF correction =     0.158989
     SCF correction compared to forces is large: reduce conv_thr to get better values


     Computing stress (Cartesian axis) and pressure

          total   stress  (Ry/bohr**3)                   (kbar)     P=      306.54
   0.00226608  -0.00040118  -0.00134407          333.35      -59.02     -197.72
  -0.00040118   0.00134811   0.00079481          -59.02      198.31      116.92
  -0.00134407   0.00079481   0.00263724         -197.72      116.92      387.95

     kinetic stress (kbar)   3406.06      9.30    -58.42
                                9.30   3407.07     39.03
                              -58.42     39.03   3613.92

     local   stress (kbar)  -3619.84    246.49    418.47
                              246.49  -3093.04   -251.55
                              418.47   -251.55   1485.97

     nonloc. stress (kbar)   4038.78    -53.33   -177.01
                              -53.33   3930.18    105.49
                             -177.01    105.49   4261.61

     hartree stress (kbar)    862.48    -10.84      3.59
                              -10.84    837.76     -2.01
                                3.59     -2.01   -795.21

     exc-cor stress (kbar)  -1168.05      0.00      0.00
                                0.00  -1168.05      0.00
                                0.00      0.00  -1168.05

     corecor stress (kbar)      0.00      0.00      0.00
                                0.00      0.00      0.00
                                0.00      0.00      0.00

     ewald   stress (kbar)  -3186.08   -250.64   -384.34
                             -250.64  -3715.61    225.96
                             -384.34    225.96  -7010.30

     hubbard stress (kbar)      0.00      0.00      0.00
                                0.00      0.00      0.00
                                0.00      0.00      0.00

     DFT-D   stress (kbar)      0.00      0.00      0.00
                                0.00      0.00      0.00
                                0.00      0.00      0.00

     XDM     stress (kbar)      0.00      0.00      0.00
                                0.00      0.00      0.00
                                0.00      0.00      0.00

     dft-nl  stress (kbar)      0.00      0.00      0.00
                                0.00      0.00      0.00
                                0.00      0.00      0.00

     TS-vdW  stress (kbar)      0.00      0.00      0.00
                                0.00      0.00      0.00
                                0.00      0.00      0.00

     MDB     stress (kbar)      0.00      0.00      0.00
                                0.00      0.00      0.00
                                0.00      0.00      0.00

     3D-RISM stress (kbar)      0.00      0.00      0.00
                                0.00      0.00      0.00
                                0.00      0.00      0.00


     Writing all to output data dir ../tmp/Si/Si.save/ :
     XML data file, charge density, pseudopotentials, collected wavefunctions

     init_run     :      2.79s CPU      2.96s WALL (       1 calls)
     electrons    :     18.62s CPU     19.01s WALL (       1 calls)
     forces       :      0.16s CPU      0.16s WALL (       1 calls)
     stress       :      1.86s CPU      1.87s WALL (       1 calls)

     Called by init_run:
     wfcinit      :      2.40s CPU      2.51s WALL (       1 calls)
     wfcinit:atom :      0.07s CPU      0.07s WALL (     512 calls)
     wfcinit:wfcr :      2.01s CPU      2.11s WALL (     512 calls)
     potinit      :      0.01s CPU      0.02s WALL (       1 calls)
     hinit0       :      0.31s CPU      0.34s WALL (       1 calls)

     Called by electrons:
     c_bands      :     16.01s CPU     16.35s WALL (       3 calls)
     sum_band     :      2.60s CPU      2.63s WALL (       3 calls)
     v_of_rho     :      0.01s CPU      0.01s WALL (       4 calls)
     v_h          :      0.00s CPU      0.01s WALL (       4 calls)
     v_xc         :      0.00s CPU      0.01s WALL (       4 calls)
     mix_rho      :      0.00s CPU      0.01s WALL (       3 calls)

     Called by c_bands:
     init_us_2    :      0.66s CPU      0.68s WALL (    4608 calls)
     cegterg      :     15.55s CPU     15.87s WALL (    1536 calls)

     Called by sum_band:
     sum_band:wei :      0.01s CPU      0.01s WALL (       3 calls)
     sum_band:loo :      2.59s CPU      2.63s WALL (       3 calls)
     sum_band:buf :      0.03s CPU      0.03s WALL (    1536 calls)
     sum_band:ini :      0.22s CPU      0.22s WALL (    1536 calls)

     Called by *egterg:
     cdiaghg      :      0.65s CPU      0.67s WALL (    5260 calls)
     cegterg:over :      0.29s CPU      0.29s WALL (    3724 calls)
     cegterg:upda :      0.22s CPU      0.22s WALL (    3724 calls)
     cegterg:last :      0.23s CPU      0.23s WALL (    3080 calls)
     h_psi        :     15.82s CPU     16.21s WALL (    5772 calls)
     g_psi        :      0.09s CPU      0.09s WALL (    3724 calls)

     Called by h_psi:
     h_psi:calbec :      0.26s CPU      0.27s WALL (    5772 calls)
     vloc_psi     :     15.26s CPU     15.64s WALL (    5772 calls)
     add_vuspsi   :      0.19s CPU      0.20s WALL (    5772 calls)

     General routines
     calbec       :      0.33s CPU      0.33s WALL (    8332 calls)
     fft          :      0.28s CPU      0.31s WALL (      16 calls)
     ffts         :      0.00s CPU      0.00s WALL (       3 calls)
     fftw         :     15.22s CPU     15.58s WALL (   85362 calls)


     PWSCF        :     23.55s CPU     24.21s WALL


   This run was terminated on:  15:20:55   7May2024            

=------------------------------------------------------------------------------=
   JOB DONE.
=------------------------------------------------------------------------------=
