
     Program PWSCF v.7.3.1 starts on  7May2024 at 15:25:57 

     This program is part of the open-source Quantum ESPRESSO suite
     for quantum simulation of materials; please cite
         "P. Giannozzi et al., J. Phys.:Condens. Matter 21 395502 (2009);
         "P. Giannozzi et al., J. Phys.:Condens. Matter 29 465901 (2017);
         "P. Giannozzi et al., J. Chem. Phys. 152 154105 (2020);
          URL http://www.quantum-espresso.org", 
     in publications or presentations arising from this work. More details at
     http://www.quantum-espresso.org/quote

     Serial version
     7364 MiB available memory on the printing compute node when the environment starts

     Reading input from Si10.pw.in

     Current dimensions of program PWSCF are:
     Max number of different atomic species (ntypx) = 10
     Max number of k-points (npk) =  40000
     Max angular momentum in pseudopotentials (lmaxx) =  4


     G-vector sticks info
     --------------------
     sticks:   dense  smooth     PW     G-vecs:    dense   smooth      PW
     Sum         283     283    109                 6629     6629    1449

     Using Slab Decomposition



     bravais-lattice index     =            0
     lattice parameter (alat)  =       5.0781  a.u.
     unit-cell volume          =     193.8226 (a.u.)^3
     number of atoms/cell      =            2
     number of atomic types    =            1
     number of electrons       =         8.00
     number of Kohn-Sham states=            8
     kinetic-energy cutoff     =      40.0000  Ry
     charge density cutoff     =     160.0000  Ry
     scf convergence threshold =      2.0E-02
     mixing beta               =       0.1000
     number of iterations used =            8  plain     mixing
     Exchange-correlation=  SLA  PZ   NOGX NOGC
                           (   1   1   0   0   0   0   0)

     celldm(1)=   5.078053  celldm(2)=   0.000000  celldm(3)=   0.000000
     celldm(4)=   0.000000  celldm(5)=   0.000000  celldm(6)=   0.000000

     crystal axes: (cart. coord. in units of alat)
               a(1) = (   1.000000   0.000000   0.000000 )  
               a(2) = (  -0.500000   0.866025   0.000000 )  
               a(3) = (   0.000000   0.000000   1.709157 )  

     reciprocal axes: (cart. coord. in units 2 pi/alat)
               b(1) = (  1.000000  0.577350 -0.000000 )  
               b(2) = (  0.000000  1.154701  0.000000 )  
               b(3) = (  0.000000 -0.000000  0.585084 )  


     PseudoPot. # 1 for Si read from file:
     ../pseudo/Si.pz-vbc.UPF
     MD5 check sum: 6dfa03ddd5817404712e03e4d12deb78
     Pseudo is Norm-conserving, Zval =  4.0
     Generated by new atomic code, or converted to UPF format
     Using radial grid of  431 points,  2 beta functions with: 
                l(1) =   0
                l(2) =   1

     atomic species   valence    mass     pseudopotential
     Si                4.00    28.08600     Si( 1.00)

     No symmetry found


                                    s                        frac. trans.

      isym =  1     identity                                     

 cryst.   s( 1) = (     1          0          0      )
                  (     0          1          0      )
                  (     0          0          1      )

 cart.    s( 1) = (  1.0000000  0.0000000  0.0000000 )
                  (  0.0000000  1.0000000  0.0000000 )
                  (  0.0000000  0.0000000  1.0000000 )


   Cartesian axes

     site n.     atom                  positions (alat units)
         1        Si     tau(   1) = (  -0.0786807   0.6361231   0.4354919  )
         2        Si     tau(   2) = (   0.4815921   0.2558424   1.3362183  )

   Crystallographic axes

     site n.     atom                  positions (cryst. coord.)
         1        Si     tau(   1) = (  0.2885852  0.7345317  0.2547992  )
         2        Si     tau(   2) = (  0.6293027  0.2954214  0.7817994  )

     number of k points=   512  Fermi-Dirac smearing, width (Ry)=  0.0019
                       cart. coord. in units 2pi/alat
        k(    1) = (   0.0000000   0.0000000   0.0000000), wk =   0.0039062
        k(    2) = (   0.0000000   0.0000000   0.0731354), wk =   0.0039062
        k(    3) = (   0.0000000   0.0000000   0.1462709), wk =   0.0039062
        k(    4) = (   0.0000000   0.0000000   0.2194063), wk =   0.0039062
        k(    5) = (   0.0000000   0.0000000  -0.2925418), wk =   0.0039062
        k(    6) = (   0.0000000   0.0000000  -0.2194063), wk =   0.0039062
        k(    7) = (   0.0000000   0.0000000  -0.1462709), wk =   0.0039062
        k(    8) = (   0.0000000   0.0000000  -0.0731354), wk =   0.0039062
        k(    9) = (   0.0000000   0.1443376   0.0000000), wk =   0.0039062
        k(   10) = (   0.0000000   0.1443376   0.0731354), wk =   0.0039062
        k(   11) = (   0.0000000   0.1443376   0.1462709), wk =   0.0039062
        k(   12) = (   0.0000000   0.1443376   0.2194063), wk =   0.0039062
        k(   13) = (   0.0000000   0.1443376  -0.2925418), wk =   0.0039062
        k(   14) = (   0.0000000   0.1443376  -0.2194063), wk =   0.0039062
        k(   15) = (   0.0000000   0.1443376  -0.1462709), wk =   0.0039062
        k(   16) = (   0.0000000   0.1443376  -0.0731354), wk =   0.0039062
        k(   17) = (   0.0000000   0.2886751   0.0000000), wk =   0.0039062
        k(   18) = (   0.0000000   0.2886751   0.0731354), wk =   0.0039062
        k(   19) = (   0.0000000   0.2886751   0.1462709), wk =   0.0039062
        k(   20) = (   0.0000000   0.2886751   0.2194063), wk =   0.0039062
        k(   21) = (   0.0000000   0.2886751  -0.2925418), wk =   0.0039062
        k(   22) = (   0.0000000   0.2886751  -0.2194063), wk =   0.0039062
        k(   23) = (   0.0000000   0.2886751  -0.1462709), wk =   0.0039062
        k(   24) = (   0.0000000   0.2886751  -0.0731354), wk =   0.0039062
        k(   25) = (   0.0000000   0.4330127   0.0000000), wk =   0.0039062
        k(   26) = (   0.0000000   0.4330127   0.0731354), wk =   0.0039062
        k(   27) = (   0.0000000   0.4330127   0.1462709), wk =   0.0039062
        k(   28) = (   0.0000000   0.4330127   0.2194063), wk =   0.0039062
        k(   29) = (   0.0000000   0.4330127  -0.2925418), wk =   0.0039062
        k(   30) = (   0.0000000   0.4330127  -0.2194063), wk =   0.0039062
        k(   31) = (   0.0000000   0.4330127  -0.1462709), wk =   0.0039062
        k(   32) = (   0.0000000   0.4330127  -0.0731354), wk =   0.0039062
        k(   33) = (   0.0000000  -0.5773503   0.0000000), wk =   0.0039062
        k(   34) = (   0.0000000  -0.5773503   0.0731354), wk =   0.0039062
        k(   35) = (   0.0000000  -0.5773503   0.1462709), wk =   0.0039062
        k(   36) = (   0.0000000  -0.5773503   0.2194063), wk =   0.0039062
        k(   37) = (   0.0000000  -0.5773503  -0.2925418), wk =   0.0039062
        k(   38) = (   0.0000000  -0.5773503  -0.2194063), wk =   0.0039062
        k(   39) = (   0.0000000  -0.5773503  -0.1462709), wk =   0.0039062
        k(   40) = (   0.0000000  -0.5773503  -0.0731354), wk =   0.0039062
        k(   41) = (   0.0000000  -0.4330127   0.0000000), wk =   0.0039062
        k(   42) = (   0.0000000  -0.4330127   0.0731354), wk =   0.0039062
        k(   43) = (   0.0000000  -0.4330127   0.1462709), wk =   0.0039062
        k(   44) = (   0.0000000  -0.4330127   0.2194063), wk =   0.0039062
        k(   45) = (   0.0000000  -0.4330127  -0.2925418), wk =   0.0039062
        k(   46) = (   0.0000000  -0.4330127  -0.2194063), wk =   0.0039062
        k(   47) = (   0.0000000  -0.4330127  -0.1462709), wk =   0.0039062
        k(   48) = (   0.0000000  -0.4330127  -0.0731354), wk =   0.0039062
        k(   49) = (   0.0000000  -0.2886751   0.0000000), wk =   0.0039062
        k(   50) = (   0.0000000  -0.2886751   0.0731354), wk =   0.0039062
        k(   51) = (   0.0000000  -0.2886751   0.1462709), wk =   0.0039062
        k(   52) = (   0.0000000  -0.2886751   0.2194063), wk =   0.0039062
        k(   53) = (   0.0000000  -0.2886751  -0.2925418), wk =   0.0039062
        k(   54) = (   0.0000000  -0.2886751  -0.2194063), wk =   0.0039062
        k(   55) = (   0.0000000  -0.2886751  -0.1462709), wk =   0.0039062
        k(   56) = (   0.0000000  -0.2886751  -0.0731354), wk =   0.0039062
        k(   57) = (   0.0000000  -0.1443376   0.0000000), wk =   0.0039062
        k(   58) = (   0.0000000  -0.1443376   0.0731354), wk =   0.0039062
        k(   59) = (   0.0000000  -0.1443376   0.1462709), wk =   0.0039062
        k(   60) = (   0.0000000  -0.1443376   0.2194063), wk =   0.0039062
        k(   61) = (   0.0000000  -0.1443376  -0.2925418), wk =   0.0039062
        k(   62) = (   0.0000000  -0.1443376  -0.2194063), wk =   0.0039062
        k(   63) = (   0.0000000  -0.1443376  -0.1462709), wk =   0.0039062
        k(   64) = (   0.0000000  -0.1443376  -0.0731354), wk =   0.0039062
        k(   65) = (   0.1250000   0.0721688   0.0000000), wk =   0.0039062
        k(   66) = (   0.1250000   0.0721688   0.0731354), wk =   0.0039062
        k(   67) = (   0.1250000   0.0721688   0.1462709), wk =   0.0039062
        k(   68) = (   0.1250000   0.0721688   0.2194063), wk =   0.0039062
        k(   69) = (   0.1250000   0.0721688  -0.2925418), wk =   0.0039062
        k(   70) = (   0.1250000   0.0721688  -0.2194063), wk =   0.0039062
        k(   71) = (   0.1250000   0.0721688  -0.1462709), wk =   0.0039062
        k(   72) = (   0.1250000   0.0721688  -0.0731354), wk =   0.0039062
        k(   73) = (   0.1250000   0.2165064   0.0000000), wk =   0.0039062
        k(   74) = (   0.1250000   0.2165064   0.0731354), wk =   0.0039062
        k(   75) = (   0.1250000   0.2165064   0.1462709), wk =   0.0039062
        k(   76) = (   0.1250000   0.2165064   0.2194063), wk =   0.0039062
        k(   77) = (   0.1250000   0.2165064  -0.2925418), wk =   0.0039062
        k(   78) = (   0.1250000   0.2165064  -0.2194063), wk =   0.0039062
        k(   79) = (   0.1250000   0.2165064  -0.1462709), wk =   0.0039062
        k(   80) = (   0.1250000   0.2165064  -0.0731354), wk =   0.0039062
        k(   81) = (   0.1250000   0.3608439   0.0000000), wk =   0.0039062
        k(   82) = (   0.1250000   0.3608439   0.0731354), wk =   0.0039062
        k(   83) = (   0.1250000   0.3608439   0.1462709), wk =   0.0039062
        k(   84) = (   0.1250000   0.3608439   0.2194063), wk =   0.0039062
        k(   85) = (   0.1250000   0.3608439  -0.2925418), wk =   0.0039062
        k(   86) = (   0.1250000   0.3608439  -0.2194063), wk =   0.0039062
        k(   87) = (   0.1250000   0.3608439  -0.1462709), wk =   0.0039062
        k(   88) = (   0.1250000   0.3608439  -0.0731354), wk =   0.0039062
        k(   89) = (   0.1250000   0.5051815   0.0000000), wk =   0.0039062
        k(   90) = (   0.1250000   0.5051815   0.0731354), wk =   0.0039062
        k(   91) = (   0.1250000   0.5051815   0.1462709), wk =   0.0039062
        k(   92) = (   0.1250000   0.5051815   0.2194063), wk =   0.0039062
        k(   93) = (   0.1250000   0.5051815  -0.2925418), wk =   0.0039062
        k(   94) = (   0.1250000   0.5051815  -0.2194063), wk =   0.0039062
        k(   95) = (   0.1250000   0.5051815  -0.1462709), wk =   0.0039062
        k(   96) = (   0.1250000   0.5051815  -0.0731354), wk =   0.0039062
        k(   97) = (   0.1250000  -0.5051815   0.0000000), wk =   0.0039062
        k(   98) = (   0.1250000  -0.5051815   0.0731354), wk =   0.0039062
        k(   99) = (   0.1250000  -0.5051815   0.1462709), wk =   0.0039062
        k(  100) = (   0.1250000  -0.5051815   0.2194063), wk =   0.0039062
        k(  101) = (   0.1250000  -0.5051815  -0.2925418), wk =   0.0039062
        k(  102) = (   0.1250000  -0.5051815  -0.2194063), wk =   0.0039062
        k(  103) = (   0.1250000  -0.5051815  -0.1462709), wk =   0.0039062
        k(  104) = (   0.1250000  -0.5051815  -0.0731354), wk =   0.0039062
        k(  105) = (   0.1250000  -0.3608439   0.0000000), wk =   0.0039062
        k(  106) = (   0.1250000  -0.3608439   0.0731354), wk =   0.0039062
        k(  107) = (   0.1250000  -0.3608439   0.1462709), wk =   0.0039062
        k(  108) = (   0.1250000  -0.3608439   0.2194063), wk =   0.0039062
        k(  109) = (   0.1250000  -0.3608439  -0.2925418), wk =   0.0039062
        k(  110) = (   0.1250000  -0.3608439  -0.2194063), wk =   0.0039062
        k(  111) = (   0.1250000  -0.3608439  -0.1462709), wk =   0.0039062
        k(  112) = (   0.1250000  -0.3608439  -0.0731354), wk =   0.0039062
        k(  113) = (   0.1250000  -0.2165064   0.0000000), wk =   0.0039062
        k(  114) = (   0.1250000  -0.2165064   0.0731354), wk =   0.0039062
        k(  115) = (   0.1250000  -0.2165064   0.1462709), wk =   0.0039062
        k(  116) = (   0.1250000  -0.2165064   0.2194063), wk =   0.0039062
        k(  117) = (   0.1250000  -0.2165064  -0.2925418), wk =   0.0039062
        k(  118) = (   0.1250000  -0.2165064  -0.2194063), wk =   0.0039062
        k(  119) = (   0.1250000  -0.2165064  -0.1462709), wk =   0.0039062
        k(  120) = (   0.1250000  -0.2165064  -0.0731354), wk =   0.0039062
        k(  121) = (   0.1250000  -0.0721688   0.0000000), wk =   0.0039062
        k(  122) = (   0.1250000  -0.0721688   0.0731354), wk =   0.0039062
        k(  123) = (   0.1250000  -0.0721688   0.1462709), wk =   0.0039062
        k(  124) = (   0.1250000  -0.0721688   0.2194063), wk =   0.0039062
        k(  125) = (   0.1250000  -0.0721688  -0.2925418), wk =   0.0039062
        k(  126) = (   0.1250000  -0.0721688  -0.2194063), wk =   0.0039062
        k(  127) = (   0.1250000  -0.0721688  -0.1462709), wk =   0.0039062
        k(  128) = (   0.1250000  -0.0721688  -0.0731354), wk =   0.0039062
        k(  129) = (   0.2500000   0.1443376   0.0000000), wk =   0.0039062
        k(  130) = (   0.2500000   0.1443376   0.0731354), wk =   0.0039062
        k(  131) = (   0.2500000   0.1443376   0.1462709), wk =   0.0039062
        k(  132) = (   0.2500000   0.1443376   0.2194063), wk =   0.0039062
        k(  133) = (   0.2500000   0.1443376  -0.2925418), wk =   0.0039062
        k(  134) = (   0.2500000   0.1443376  -0.2194063), wk =   0.0039062
        k(  135) = (   0.2500000   0.1443376  -0.1462709), wk =   0.0039062
        k(  136) = (   0.2500000   0.1443376  -0.0731354), wk =   0.0039062
        k(  137) = (   0.2500000   0.2886751   0.0000000), wk =   0.0039062
        k(  138) = (   0.2500000   0.2886751   0.0731354), wk =   0.0039062
        k(  139) = (   0.2500000   0.2886751   0.1462709), wk =   0.0039062
        k(  140) = (   0.2500000   0.2886751   0.2194063), wk =   0.0039062
        k(  141) = (   0.2500000   0.2886751  -0.2925418), wk =   0.0039062
        k(  142) = (   0.2500000   0.2886751  -0.2194063), wk =   0.0039062
        k(  143) = (   0.2500000   0.2886751  -0.1462709), wk =   0.0039062
        k(  144) = (   0.2500000   0.2886751  -0.0731354), wk =   0.0039062
        k(  145) = (   0.2500000   0.4330127   0.0000000), wk =   0.0039062
        k(  146) = (   0.2500000   0.4330127   0.0731354), wk =   0.0039062
        k(  147) = (   0.2500000   0.4330127   0.1462709), wk =   0.0039062
        k(  148) = (   0.2500000   0.4330127   0.2194063), wk =   0.0039062
        k(  149) = (   0.2500000   0.4330127  -0.2925418), wk =   0.0039062
        k(  150) = (   0.2500000   0.4330127  -0.2194063), wk =   0.0039062
        k(  151) = (   0.2500000   0.4330127  -0.1462709), wk =   0.0039062
        k(  152) = (   0.2500000   0.4330127  -0.0731354), wk =   0.0039062
        k(  153) = (   0.2500000   0.5773503   0.0000000), wk =   0.0039062
        k(  154) = (   0.2500000   0.5773503   0.0731354), wk =   0.0039062
        k(  155) = (   0.2500000   0.5773503   0.1462709), wk =   0.0039062
        k(  156) = (   0.2500000   0.5773503   0.2194063), wk =   0.0039062
        k(  157) = (   0.2500000   0.5773503  -0.2925418), wk =   0.0039062
        k(  158) = (   0.2500000   0.5773503  -0.2194063), wk =   0.0039062
        k(  159) = (   0.2500000   0.5773503  -0.1462709), wk =   0.0039062
        k(  160) = (   0.2500000   0.5773503  -0.0731354), wk =   0.0039062
        k(  161) = (   0.2500000  -0.4330127   0.0000000), wk =   0.0039062
        k(  162) = (   0.2500000  -0.4330127   0.0731354), wk =   0.0039062
        k(  163) = (   0.2500000  -0.4330127   0.1462709), wk =   0.0039062
        k(  164) = (   0.2500000  -0.4330127   0.2194063), wk =   0.0039062
        k(  165) = (   0.2500000  -0.4330127  -0.2925418), wk =   0.0039062
        k(  166) = (   0.2500000  -0.4330127  -0.2194063), wk =   0.0039062
        k(  167) = (   0.2500000  -0.4330127  -0.1462709), wk =   0.0039062
        k(  168) = (   0.2500000  -0.4330127  -0.0731354), wk =   0.0039062
        k(  169) = (   0.2500000  -0.2886751   0.0000000), wk =   0.0039062
        k(  170) = (   0.2500000  -0.2886751   0.0731354), wk =   0.0039062
        k(  171) = (   0.2500000  -0.2886751   0.1462709), wk =   0.0039062
        k(  172) = (   0.2500000  -0.2886751   0.2194063), wk =   0.0039062
        k(  173) = (   0.2500000  -0.2886751  -0.2925418), wk =   0.0039062
        k(  174) = (   0.2500000  -0.2886751  -0.2194063), wk =   0.0039062
        k(  175) = (   0.2500000  -0.2886751  -0.1462709), wk =   0.0039062
        k(  176) = (   0.2500000  -0.2886751  -0.0731354), wk =   0.0039062
        k(  177) = (   0.2500000  -0.1443376   0.0000000), wk =   0.0039062
        k(  178) = (   0.2500000  -0.1443376   0.0731354), wk =   0.0039062
        k(  179) = (   0.2500000  -0.1443376   0.1462709), wk =   0.0039062
        k(  180) = (   0.2500000  -0.1443376   0.2194063), wk =   0.0039062
        k(  181) = (   0.2500000  -0.1443376  -0.2925418), wk =   0.0039062
        k(  182) = (   0.2500000  -0.1443376  -0.2194063), wk =   0.0039062
        k(  183) = (   0.2500000  -0.1443376  -0.1462709), wk =   0.0039062
        k(  184) = (   0.2500000  -0.1443376  -0.0731354), wk =   0.0039062
        k(  185) = (   0.2500000   0.0000000   0.0000000), wk =   0.0039062
        k(  186) = (   0.2500000   0.0000000   0.0731354), wk =   0.0039062
        k(  187) = (   0.2500000   0.0000000   0.1462709), wk =   0.0039062
        k(  188) = (   0.2500000   0.0000000   0.2194063), wk =   0.0039062
        k(  189) = (   0.2500000   0.0000000  -0.2925418), wk =   0.0039062
        k(  190) = (   0.2500000   0.0000000  -0.2194063), wk =   0.0039062
        k(  191) = (   0.2500000   0.0000000  -0.1462709), wk =   0.0039062
        k(  192) = (   0.2500000   0.0000000  -0.0731354), wk =   0.0039062
        k(  193) = (   0.3750000   0.2165064   0.0000000), wk =   0.0039062
        k(  194) = (   0.3750000   0.2165064   0.0731354), wk =   0.0039062
        k(  195) = (   0.3750000   0.2165064   0.1462709), wk =   0.0039062
        k(  196) = (   0.3750000   0.2165064   0.2194063), wk =   0.0039062
        k(  197) = (   0.3750000   0.2165064  -0.2925418), wk =   0.0039062
        k(  198) = (   0.3750000   0.2165064  -0.2194063), wk =   0.0039062
        k(  199) = (   0.3750000   0.2165064  -0.1462709), wk =   0.0039062
        k(  200) = (   0.3750000   0.2165064  -0.0731354), wk =   0.0039062
        k(  201) = (   0.3750000   0.3608439   0.0000000), wk =   0.0039062
        k(  202) = (   0.3750000   0.3608439   0.0731354), wk =   0.0039062
        k(  203) = (   0.3750000   0.3608439   0.1462709), wk =   0.0039062
        k(  204) = (   0.3750000   0.3608439   0.2194063), wk =   0.0039062
        k(  205) = (   0.3750000   0.3608439  -0.2925418), wk =   0.0039062
        k(  206) = (   0.3750000   0.3608439  -0.2194063), wk =   0.0039062
        k(  207) = (   0.3750000   0.3608439  -0.1462709), wk =   0.0039062
        k(  208) = (   0.3750000   0.3608439  -0.0731354), wk =   0.0039062
        k(  209) = (   0.3750000   0.5051815   0.0000000), wk =   0.0039062
        k(  210) = (   0.3750000   0.5051815   0.0731354), wk =   0.0039062
        k(  211) = (   0.3750000   0.5051815   0.1462709), wk =   0.0039062
        k(  212) = (   0.3750000   0.5051815   0.2194063), wk =   0.0039062
        k(  213) = (   0.3750000   0.5051815  -0.2925418), wk =   0.0039062
        k(  214) = (   0.3750000   0.5051815  -0.2194063), wk =   0.0039062
        k(  215) = (   0.3750000   0.5051815  -0.1462709), wk =   0.0039062
        k(  216) = (   0.3750000   0.5051815  -0.0731354), wk =   0.0039062
        k(  217) = (   0.3750000   0.6495191   0.0000000), wk =   0.0039062
        k(  218) = (   0.3750000   0.6495191   0.0731354), wk =   0.0039062
        k(  219) = (   0.3750000   0.6495191   0.1462709), wk =   0.0039062
        k(  220) = (   0.3750000   0.6495191   0.2194063), wk =   0.0039062
        k(  221) = (   0.3750000   0.6495191  -0.2925418), wk =   0.0039062
        k(  222) = (   0.3750000   0.6495191  -0.2194063), wk =   0.0039062
        k(  223) = (   0.3750000   0.6495191  -0.1462709), wk =   0.0039062
        k(  224) = (   0.3750000   0.6495191  -0.0731354), wk =   0.0039062
        k(  225) = (   0.3750000  -0.3608439   0.0000000), wk =   0.0039062
        k(  226) = (   0.3750000  -0.3608439   0.0731354), wk =   0.0039062
        k(  227) = (   0.3750000  -0.3608439   0.1462709), wk =   0.0039062
        k(  228) = (   0.3750000  -0.3608439   0.2194063), wk =   0.0039062
        k(  229) = (   0.3750000  -0.3608439  -0.2925418), wk =   0.0039062
        k(  230) = (   0.3750000  -0.3608439  -0.2194063), wk =   0.0039062
        k(  231) = (   0.3750000  -0.3608439  -0.1462709), wk =   0.0039062
        k(  232) = (   0.3750000  -0.3608439  -0.0731354), wk =   0.0039062
        k(  233) = (   0.3750000  -0.2165064   0.0000000), wk =   0.0039062
        k(  234) = (   0.3750000  -0.2165064   0.0731354), wk =   0.0039062
        k(  235) = (   0.3750000  -0.2165064   0.1462709), wk =   0.0039062
        k(  236) = (   0.3750000  -0.2165064   0.2194063), wk =   0.0039062
        k(  237) = (   0.3750000  -0.2165064  -0.2925418), wk =   0.0039062
        k(  238) = (   0.3750000  -0.2165064  -0.2194063), wk =   0.0039062
        k(  239) = (   0.3750000  -0.2165064  -0.1462709), wk =   0.0039062
        k(  240) = (   0.3750000  -0.2165064  -0.0731354), wk =   0.0039062
        k(  241) = (   0.3750000  -0.0721688   0.0000000), wk =   0.0039062
        k(  242) = (   0.3750000  -0.0721688   0.0731354), wk =   0.0039062
        k(  243) = (   0.3750000  -0.0721688   0.1462709), wk =   0.0039062
        k(  244) = (   0.3750000  -0.0721688   0.2194063), wk =   0.0039062
        k(  245) = (   0.3750000  -0.0721688  -0.2925418), wk =   0.0039062
        k(  246) = (   0.3750000  -0.0721688  -0.2194063), wk =   0.0039062
        k(  247) = (   0.3750000  -0.0721688  -0.1462709), wk =   0.0039062
        k(  248) = (   0.3750000  -0.0721688  -0.0731354), wk =   0.0039062
        k(  249) = (   0.3750000   0.0721688   0.0000000), wk =   0.0039062
        k(  250) = (   0.3750000   0.0721688   0.0731354), wk =   0.0039062
        k(  251) = (   0.3750000   0.0721688   0.1462709), wk =   0.0039062
        k(  252) = (   0.3750000   0.0721688   0.2194063), wk =   0.0039062
        k(  253) = (   0.3750000   0.0721688  -0.2925418), wk =   0.0039062
        k(  254) = (   0.3750000   0.0721688  -0.2194063), wk =   0.0039062
        k(  255) = (   0.3750000   0.0721688  -0.1462709), wk =   0.0039062
        k(  256) = (   0.3750000   0.0721688  -0.0731354), wk =   0.0039062
        k(  257) = (  -0.5000000  -0.2886751   0.0000000), wk =   0.0039062
        k(  258) = (  -0.5000000  -0.2886751   0.0731354), wk =   0.0039062
        k(  259) = (  -0.5000000  -0.2886751   0.1462709), wk =   0.0039062
        k(  260) = (  -0.5000000  -0.2886751   0.2194063), wk =   0.0039062
        k(  261) = (  -0.5000000  -0.2886751  -0.2925418), wk =   0.0039062
        k(  262) = (  -0.5000000  -0.2886751  -0.2194063), wk =   0.0039062
        k(  263) = (  -0.5000000  -0.2886751  -0.1462709), wk =   0.0039062
        k(  264) = (  -0.5000000  -0.2886751  -0.0731354), wk =   0.0039062
        k(  265) = (  -0.5000000  -0.1443376   0.0000000), wk =   0.0039062
        k(  266) = (  -0.5000000  -0.1443376   0.0731354), wk =   0.0039062
        k(  267) = (  -0.5000000  -0.1443376   0.1462709), wk =   0.0039062
        k(  268) = (  -0.5000000  -0.1443376   0.2194063), wk =   0.0039062
        k(  269) = (  -0.5000000  -0.1443376  -0.2925418), wk =   0.0039062
        k(  270) = (  -0.5000000  -0.1443376  -0.2194063), wk =   0.0039062
        k(  271) = (  -0.5000000  -0.1443376  -0.1462709), wk =   0.0039062
        k(  272) = (  -0.5000000  -0.1443376  -0.0731354), wk =   0.0039062
        k(  273) = (  -0.5000000  -0.0000000   0.0000000), wk =   0.0039062
        k(  274) = (  -0.5000000  -0.0000000   0.0731354), wk =   0.0039062
        k(  275) = (  -0.5000000  -0.0000000   0.1462709), wk =   0.0039062
        k(  276) = (  -0.5000000  -0.0000000   0.2194063), wk =   0.0039062
        k(  277) = (  -0.5000000  -0.0000000  -0.2925418), wk =   0.0039062
        k(  278) = (  -0.5000000  -0.0000000  -0.2194063), wk =   0.0039062
        k(  279) = (  -0.5000000  -0.0000000  -0.1462709), wk =   0.0039062
        k(  280) = (  -0.5000000  -0.0000000  -0.0731354), wk =   0.0039062
        k(  281) = (  -0.5000000   0.1443376   0.0000000), wk =   0.0039062
        k(  282) = (  -0.5000000   0.1443376   0.0731354), wk =   0.0039062
        k(  283) = (  -0.5000000   0.1443376   0.1462709), wk =   0.0039062
        k(  284) = (  -0.5000000   0.1443376   0.2194063), wk =   0.0039062
        k(  285) = (  -0.5000000   0.1443376  -0.2925418), wk =   0.0039062
        k(  286) = (  -0.5000000   0.1443376  -0.2194063), wk =   0.0039062
        k(  287) = (  -0.5000000   0.1443376  -0.1462709), wk =   0.0039062
        k(  288) = (  -0.5000000   0.1443376  -0.0731354), wk =   0.0039062
        k(  289) = (  -0.5000000  -0.8660254   0.0000000), wk =   0.0039062
        k(  290) = (  -0.5000000  -0.8660254   0.0731354), wk =   0.0039062
        k(  291) = (  -0.5000000  -0.8660254   0.1462709), wk =   0.0039062
        k(  292) = (  -0.5000000  -0.8660254   0.2194063), wk =   0.0039062
        k(  293) = (  -0.5000000  -0.8660254  -0.2925418), wk =   0.0039062
        k(  294) = (  -0.5000000  -0.8660254  -0.2194063), wk =   0.0039062
        k(  295) = (  -0.5000000  -0.8660254  -0.1462709), wk =   0.0039062
        k(  296) = (  -0.5000000  -0.8660254  -0.0731354), wk =   0.0039062
        k(  297) = (  -0.5000000  -0.7216878   0.0000000), wk =   0.0039062
        k(  298) = (  -0.5000000  -0.7216878   0.0731354), wk =   0.0039062
        k(  299) = (  -0.5000000  -0.7216878   0.1462709), wk =   0.0039062
        k(  300) = (  -0.5000000  -0.7216878   0.2194063), wk =   0.0039062
        k(  301) = (  -0.5000000  -0.7216878  -0.2925418), wk =   0.0039062
        k(  302) = (  -0.5000000  -0.7216878  -0.2194063), wk =   0.0039062
        k(  303) = (  -0.5000000  -0.7216878  -0.1462709), wk =   0.0039062
        k(  304) = (  -0.5000000  -0.7216878  -0.0731354), wk =   0.0039062
        k(  305) = (  -0.5000000  -0.5773503   0.0000000), wk =   0.0039062
        k(  306) = (  -0.5000000  -0.5773503   0.0731354), wk =   0.0039062
        k(  307) = (  -0.5000000  -0.5773503   0.1462709), wk =   0.0039062
        k(  308) = (  -0.5000000  -0.5773503   0.2194063), wk =   0.0039062
        k(  309) = (  -0.5000000  -0.5773503  -0.2925418), wk =   0.0039062
        k(  310) = (  -0.5000000  -0.5773503  -0.2194063), wk =   0.0039062
        k(  311) = (  -0.5000000  -0.5773503  -0.1462709), wk =   0.0039062
        k(  312) = (  -0.5000000  -0.5773503  -0.0731354), wk =   0.0039062
        k(  313) = (  -0.5000000  -0.4330127   0.0000000), wk =   0.0039062
        k(  314) = (  -0.5000000  -0.4330127   0.0731354), wk =   0.0039062
        k(  315) = (  -0.5000000  -0.4330127   0.1462709), wk =   0.0039062
        k(  316) = (  -0.5000000  -0.4330127   0.2194063), wk =   0.0039062
        k(  317) = (  -0.5000000  -0.4330127  -0.2925418), wk =   0.0039062
        k(  318) = (  -0.5000000  -0.4330127  -0.2194063), wk =   0.0039062
        k(  319) = (  -0.5000000  -0.4330127  -0.1462709), wk =   0.0039062
        k(  320) = (  -0.5000000  -0.4330127  -0.0731354), wk =   0.0039062
        k(  321) = (  -0.3750000  -0.2165064   0.0000000), wk =   0.0039062
        k(  322) = (  -0.3750000  -0.2165064   0.0731354), wk =   0.0039062
        k(  323) = (  -0.3750000  -0.2165064   0.1462709), wk =   0.0039062
        k(  324) = (  -0.3750000  -0.2165064   0.2194063), wk =   0.0039062
        k(  325) = (  -0.3750000  -0.2165064  -0.2925418), wk =   0.0039062
        k(  326) = (  -0.3750000  -0.2165064  -0.2194063), wk =   0.0039062
        k(  327) = (  -0.3750000  -0.2165064  -0.1462709), wk =   0.0039062
        k(  328) = (  -0.3750000  -0.2165064  -0.0731354), wk =   0.0039062
        k(  329) = (  -0.3750000  -0.0721688   0.0000000), wk =   0.0039062
        k(  330) = (  -0.3750000  -0.0721688   0.0731354), wk =   0.0039062
        k(  331) = (  -0.3750000  -0.0721688   0.1462709), wk =   0.0039062
        k(  332) = (  -0.3750000  -0.0721688   0.2194063), wk =   0.0039062
        k(  333) = (  -0.3750000  -0.0721688  -0.2925418), wk =   0.0039062
        k(  334) = (  -0.3750000  -0.0721688  -0.2194063), wk =   0.0039062
        k(  335) = (  -0.3750000  -0.0721688  -0.1462709), wk =   0.0039062
        k(  336) = (  -0.3750000  -0.0721688  -0.0731354), wk =   0.0039062
        k(  337) = (  -0.3750000   0.0721688   0.0000000), wk =   0.0039062
        k(  338) = (  -0.3750000   0.0721688   0.0731354), wk =   0.0039062
        k(  339) = (  -0.3750000   0.0721688   0.1462709), wk =   0.0039062
        k(  340) = (  -0.3750000   0.0721688   0.2194063), wk =   0.0039062
        k(  341) = (  -0.3750000   0.0721688  -0.2925418), wk =   0.0039062
        k(  342) = (  -0.3750000   0.0721688  -0.2194063), wk =   0.0039062
        k(  343) = (  -0.3750000   0.0721688  -0.1462709), wk =   0.0039062
        k(  344) = (  -0.3750000   0.0721688  -0.0731354), wk =   0.0039062
        k(  345) = (  -0.3750000   0.2165064   0.0000000), wk =   0.0039062
        k(  346) = (  -0.3750000   0.2165064   0.0731354), wk =   0.0039062
        k(  347) = (  -0.3750000   0.2165064   0.1462709), wk =   0.0039062
        k(  348) = (  -0.3750000   0.2165064   0.2194063), wk =   0.0039062
        k(  349) = (  -0.3750000   0.2165064  -0.2925418), wk =   0.0039062
        k(  350) = (  -0.3750000   0.2165064  -0.2194063), wk =   0.0039062
        k(  351) = (  -0.3750000   0.2165064  -0.1462709), wk =   0.0039062
        k(  352) = (  -0.3750000   0.2165064  -0.0731354), wk =   0.0039062
        k(  353) = (  -0.3750000  -0.7938566   0.0000000), wk =   0.0039062
        k(  354) = (  -0.3750000  -0.7938566   0.0731354), wk =   0.0039062
        k(  355) = (  -0.3750000  -0.7938566   0.1462709), wk =   0.0039062
        k(  356) = (  -0.3750000  -0.7938566   0.2194063), wk =   0.0039062
        k(  357) = (  -0.3750000  -0.7938566  -0.2925418), wk =   0.0039062
        k(  358) = (  -0.3750000  -0.7938566  -0.2194063), wk =   0.0039062
        k(  359) = (  -0.3750000  -0.7938566  -0.1462709), wk =   0.0039062
        k(  360) = (  -0.3750000  -0.7938566  -0.0731354), wk =   0.0039062
        k(  361) = (  -0.3750000  -0.6495191   0.0000000), wk =   0.0039062
        k(  362) = (  -0.3750000  -0.6495191   0.0731354), wk =   0.0039062
        k(  363) = (  -0.3750000  -0.6495191   0.1462709), wk =   0.0039062
        k(  364) = (  -0.3750000  -0.6495191   0.2194063), wk =   0.0039062
        k(  365) = (  -0.3750000  -0.6495191  -0.2925418), wk =   0.0039062
        k(  366) = (  -0.3750000  -0.6495191  -0.2194063), wk =   0.0039062
        k(  367) = (  -0.3750000  -0.6495191  -0.1462709), wk =   0.0039062
        k(  368) = (  -0.3750000  -0.6495191  -0.0731354), wk =   0.0039062
        k(  369) = (  -0.3750000  -0.5051815   0.0000000), wk =   0.0039062
        k(  370) = (  -0.3750000  -0.5051815   0.0731354), wk =   0.0039062
        k(  371) = (  -0.3750000  -0.5051815   0.1462709), wk =   0.0039062
        k(  372) = (  -0.3750000  -0.5051815   0.2194063), wk =   0.0039062
        k(  373) = (  -0.3750000  -0.5051815  -0.2925418), wk =   0.0039062
        k(  374) = (  -0.3750000  -0.5051815  -0.2194063), wk =   0.0039062
        k(  375) = (  -0.3750000  -0.5051815  -0.1462709), wk =   0.0039062
        k(  376) = (  -0.3750000  -0.5051815  -0.0731354), wk =   0.0039062
        k(  377) = (  -0.3750000  -0.3608439   0.0000000), wk =   0.0039062
        k(  378) = (  -0.3750000  -0.3608439   0.0731354), wk =   0.0039062
        k(  379) = (  -0.3750000  -0.3608439   0.1462709), wk =   0.0039062
        k(  380) = (  -0.3750000  -0.3608439   0.2194063), wk =   0.0039062
        k(  381) = (  -0.3750000  -0.3608439  -0.2925418), wk =   0.0039062
        k(  382) = (  -0.3750000  -0.3608439  -0.2194063), wk =   0.0039062
        k(  383) = (  -0.3750000  -0.3608439  -0.1462709), wk =   0.0039062
        k(  384) = (  -0.3750000  -0.3608439  -0.0731354), wk =   0.0039062
        k(  385) = (  -0.2500000  -0.1443376   0.0000000), wk =   0.0039062
        k(  386) = (  -0.2500000  -0.1443376   0.0731354), wk =   0.0039062
        k(  387) = (  -0.2500000  -0.1443376   0.1462709), wk =   0.0039062
        k(  388) = (  -0.2500000  -0.1443376   0.2194063), wk =   0.0039062
        k(  389) = (  -0.2500000  -0.1443376  -0.2925418), wk =   0.0039062
        k(  390) = (  -0.2500000  -0.1443376  -0.2194063), wk =   0.0039062
        k(  391) = (  -0.2500000  -0.1443376  -0.1462709), wk =   0.0039062
        k(  392) = (  -0.2500000  -0.1443376  -0.0731354), wk =   0.0039062
        k(  393) = (  -0.2500000  -0.0000000   0.0000000), wk =   0.0039062
        k(  394) = (  -0.2500000  -0.0000000   0.0731354), wk =   0.0039062
        k(  395) = (  -0.2500000  -0.0000000   0.1462709), wk =   0.0039062
        k(  396) = (  -0.2500000  -0.0000000   0.2194063), wk =   0.0039062
        k(  397) = (  -0.2500000  -0.0000000  -0.2925418), wk =   0.0039062
        k(  398) = (  -0.2500000  -0.0000000  -0.2194063), wk =   0.0039062
        k(  399) = (  -0.2500000  -0.0000000  -0.1462709), wk =   0.0039062
        k(  400) = (  -0.2500000  -0.0000000  -0.0731354), wk =   0.0039062
        k(  401) = (  -0.2500000   0.1443376   0.0000000), wk =   0.0039062
        k(  402) = (  -0.2500000   0.1443376   0.0731354), wk =   0.0039062
        k(  403) = (  -0.2500000   0.1443376   0.1462709), wk =   0.0039062
        k(  404) = (  -0.2500000   0.1443376   0.2194063), wk =   0.0039062
        k(  405) = (  -0.2500000   0.1443376  -0.2925418), wk =   0.0039062
        k(  406) = (  -0.2500000   0.1443376  -0.2194063), wk =   0.0039062
        k(  407) = (  -0.2500000   0.1443376  -0.1462709), wk =   0.0039062
        k(  408) = (  -0.2500000   0.1443376  -0.0731354), wk =   0.0039062
        k(  409) = (  -0.2500000   0.2886751   0.0000000), wk =   0.0039062
        k(  410) = (  -0.2500000   0.2886751   0.0731354), wk =   0.0039062
        k(  411) = (  -0.2500000   0.2886751   0.1462709), wk =   0.0039062
        k(  412) = (  -0.2500000   0.2886751   0.2194063), wk =   0.0039062
        k(  413) = (  -0.2500000   0.2886751  -0.2925418), wk =   0.0039062
        k(  414) = (  -0.2500000   0.2886751  -0.2194063), wk =   0.0039062
        k(  415) = (  -0.2500000   0.2886751  -0.1462709), wk =   0.0039062
        k(  416) = (  -0.2500000   0.2886751  -0.0731354), wk =   0.0039062
        k(  417) = (  -0.2500000  -0.7216878   0.0000000), wk =   0.0039062
        k(  418) = (  -0.2500000  -0.7216878   0.0731354), wk =   0.0039062
        k(  419) = (  -0.2500000  -0.7216878   0.1462709), wk =   0.0039062
        k(  420) = (  -0.2500000  -0.7216878   0.2194063), wk =   0.0039062
        k(  421) = (  -0.2500000  -0.7216878  -0.2925418), wk =   0.0039062
        k(  422) = (  -0.2500000  -0.7216878  -0.2194063), wk =   0.0039062
        k(  423) = (  -0.2500000  -0.7216878  -0.1462709), wk =   0.0039062
        k(  424) = (  -0.2500000  -0.7216878  -0.0731354), wk =   0.0039062
        k(  425) = (  -0.2500000  -0.5773503   0.0000000), wk =   0.0039062
        k(  426) = (  -0.2500000  -0.5773503   0.0731354), wk =   0.0039062
        k(  427) = (  -0.2500000  -0.5773503   0.1462709), wk =   0.0039062
        k(  428) = (  -0.2500000  -0.5773503   0.2194063), wk =   0.0039062
        k(  429) = (  -0.2500000  -0.5773503  -0.2925418), wk =   0.0039062
        k(  430) = (  -0.2500000  -0.5773503  -0.2194063), wk =   0.0039062
        k(  431) = (  -0.2500000  -0.5773503  -0.1462709), wk =   0.0039062
        k(  432) = (  -0.2500000  -0.5773503  -0.0731354), wk =   0.0039062
        k(  433) = (  -0.2500000  -0.4330127   0.0000000), wk =   0.0039062
        k(  434) = (  -0.2500000  -0.4330127   0.0731354), wk =   0.0039062
        k(  435) = (  -0.2500000  -0.4330127   0.1462709), wk =   0.0039062
        k(  436) = (  -0.2500000  -0.4330127   0.2194063), wk =   0.0039062
        k(  437) = (  -0.2500000  -0.4330127  -0.2925418), wk =   0.0039062
        k(  438) = (  -0.2500000  -0.4330127  -0.2194063), wk =   0.0039062
        k(  439) = (  -0.2500000  -0.4330127  -0.1462709), wk =   0.0039062
        k(  440) = (  -0.2500000  -0.4330127  -0.0731354), wk =   0.0039062
        k(  441) = (  -0.2500000  -0.2886751   0.0000000), wk =   0.0039062
        k(  442) = (  -0.2500000  -0.2886751   0.0731354), wk =   0.0039062
        k(  443) = (  -0.2500000  -0.2886751   0.1462709), wk =   0.0039062
        k(  444) = (  -0.2500000  -0.2886751   0.2194063), wk =   0.0039062
        k(  445) = (  -0.2500000  -0.2886751  -0.2925418), wk =   0.0039062
        k(  446) = (  -0.2500000  -0.2886751  -0.2194063), wk =   0.0039062
        k(  447) = (  -0.2500000  -0.2886751  -0.1462709), wk =   0.0039062
        k(  448) = (  -0.2500000  -0.2886751  -0.0731354), wk =   0.0039062
        k(  449) = (  -0.1250000  -0.0721688   0.0000000), wk =   0.0039062
        k(  450) = (  -0.1250000  -0.0721688   0.0731354), wk =   0.0039062
        k(  451) = (  -0.1250000  -0.0721688   0.1462709), wk =   0.0039062
        k(  452) = (  -0.1250000  -0.0721688   0.2194063), wk =   0.0039062
        k(  453) = (  -0.1250000  -0.0721688  -0.2925418), wk =   0.0039062
        k(  454) = (  -0.1250000  -0.0721688  -0.2194063), wk =   0.0039062
        k(  455) = (  -0.1250000  -0.0721688  -0.1462709), wk =   0.0039062
        k(  456) = (  -0.1250000  -0.0721688  -0.0731354), wk =   0.0039062
        k(  457) = (  -0.1250000   0.0721688   0.0000000), wk =   0.0039062
        k(  458) = (  -0.1250000   0.0721688   0.0731354), wk =   0.0039062
        k(  459) = (  -0.1250000   0.0721688   0.1462709), wk =   0.0039062
        k(  460) = (  -0.1250000   0.0721688   0.2194063), wk =   0.0039062
        k(  461) = (  -0.1250000   0.0721688  -0.2925418), wk =   0.0039062
        k(  462) = (  -0.1250000   0.0721688  -0.2194063), wk =   0.0039062
        k(  463) = (  -0.1250000   0.0721688  -0.1462709), wk =   0.0039062
        k(  464) = (  -0.1250000   0.0721688  -0.0731354), wk =   0.0039062
        k(  465) = (  -0.1250000   0.2165064   0.0000000), wk =   0.0039062
        k(  466) = (  -0.1250000   0.2165064   0.0731354), wk =   0.0039062
        k(  467) = (  -0.1250000   0.2165064   0.1462709), wk =   0.0039062
        k(  468) = (  -0.1250000   0.2165064   0.2194063), wk =   0.0039062
        k(  469) = (  -0.1250000   0.2165064  -0.2925418), wk =   0.0039062
        k(  470) = (  -0.1250000   0.2165064  -0.2194063), wk =   0.0039062
        k(  471) = (  -0.1250000   0.2165064  -0.1462709), wk =   0.0039062
        k(  472) = (  -0.1250000   0.2165064  -0.0731354), wk =   0.0039062
        k(  473) = (  -0.1250000   0.3608439   0.0000000), wk =   0.0039062
        k(  474) = (  -0.1250000   0.3608439   0.0731354), wk =   0.0039062
        k(  475) = (  -0.1250000   0.3608439   0.1462709), wk =   0.0039062
        k(  476) = (  -0.1250000   0.3608439   0.2194063), wk =   0.0039062
        k(  477) = (  -0.1250000   0.3608439  -0.2925418), wk =   0.0039062
        k(  478) = (  -0.1250000   0.3608439  -0.2194063), wk =   0.0039062
        k(  479) = (  -0.1250000   0.3608439  -0.1462709), wk =   0.0039062
        k(  480) = (  -0.1250000   0.3608439  -0.0731354), wk =   0.0039062
        k(  481) = (  -0.1250000  -0.6495191   0.0000000), wk =   0.0039062
        k(  482) = (  -0.1250000  -0.6495191   0.0731354), wk =   0.0039062
        k(  483) = (  -0.1250000  -0.6495191   0.1462709), wk =   0.0039062
        k(  484) = (  -0.1250000  -0.6495191   0.2194063), wk =   0.0039062
        k(  485) = (  -0.1250000  -0.6495191  -0.2925418), wk =   0.0039062
        k(  486) = (  -0.1250000  -0.6495191  -0.2194063), wk =   0.0039062
        k(  487) = (  -0.1250000  -0.6495191  -0.1462709), wk =   0.0039062
        k(  488) = (  -0.1250000  -0.6495191  -0.0731354), wk =   0.0039062
        k(  489) = (  -0.1250000  -0.5051815   0.0000000), wk =   0.0039062
        k(  490) = (  -0.1250000  -0.5051815   0.0731354), wk =   0.0039062
        k(  491) = (  -0.1250000  -0.5051815   0.1462709), wk =   0.0039062
        k(  492) = (  -0.1250000  -0.5051815   0.2194063), wk =   0.0039062
        k(  493) = (  -0.1250000  -0.5051815  -0.2925418), wk =   0.0039062
        k(  494) = (  -0.1250000  -0.5051815  -0.2194063), wk =   0.0039062
        k(  495) = (  -0.1250000  -0.5051815  -0.1462709), wk =   0.0039062
        k(  496) = (  -0.1250000  -0.5051815  -0.0731354), wk =   0.0039062
        k(  497) = (  -0.1250000  -0.3608439   0.0000000), wk =   0.0039062
        k(  498) = (  -0.1250000  -0.3608439   0.0731354), wk =   0.0039062
        k(  499) = (  -0.1250000  -0.3608439   0.1462709), wk =   0.0039062
        k(  500) = (  -0.1250000  -0.3608439   0.2194063), wk =   0.0039062
        k(  501) = (  -0.1250000  -0.3608439  -0.2925418), wk =   0.0039062
        k(  502) = (  -0.1250000  -0.3608439  -0.2194063), wk =   0.0039062
        k(  503) = (  -0.1250000  -0.3608439  -0.1462709), wk =   0.0039062
        k(  504) = (  -0.1250000  -0.3608439  -0.0731354), wk =   0.0039062
        k(  505) = (  -0.1250000  -0.2165064   0.0000000), wk =   0.0039062
        k(  506) = (  -0.1250000  -0.2165064   0.0731354), wk =   0.0039062
        k(  507) = (  -0.1250000  -0.2165064   0.1462709), wk =   0.0039062
        k(  508) = (  -0.1250000  -0.2165064   0.2194063), wk =   0.0039062
        k(  509) = (  -0.1250000  -0.2165064  -0.2925418), wk =   0.0039062
        k(  510) = (  -0.1250000  -0.2165064  -0.2194063), wk =   0.0039062
        k(  511) = (  -0.1250000  -0.2165064  -0.1462709), wk =   0.0039062
        k(  512) = (  -0.1250000  -0.2165064  -0.0731354), wk =   0.0039062

                       cryst. coord.
        k(    1) = (   0.0000000   0.0000000   0.0000000), wk =   0.0039062
        k(    2) = (   0.0000000   0.0000000   0.1250000), wk =   0.0039062
        k(    3) = (   0.0000000   0.0000000   0.2500000), wk =   0.0039062
        k(    4) = (   0.0000000   0.0000000   0.3750000), wk =   0.0039062
        k(    5) = (   0.0000000   0.0000000  -0.5000000), wk =   0.0039062
        k(    6) = (   0.0000000   0.0000000  -0.3750000), wk =   0.0039062
        k(    7) = (   0.0000000   0.0000000  -0.2500000), wk =   0.0039062
        k(    8) = (   0.0000000   0.0000000  -0.1250000), wk =   0.0039062
        k(    9) = (   0.0000000   0.1250000   0.0000000), wk =   0.0039062
        k(   10) = (   0.0000000   0.1250000   0.1250000), wk =   0.0039062
        k(   11) = (   0.0000000   0.1250000   0.2500000), wk =   0.0039062
        k(   12) = (   0.0000000   0.1250000   0.3750000), wk =   0.0039062
        k(   13) = (   0.0000000   0.1250000  -0.5000000), wk =   0.0039062
        k(   14) = (   0.0000000   0.1250000  -0.3750000), wk =   0.0039062
        k(   15) = (   0.0000000   0.1250000  -0.2500000), wk =   0.0039062
        k(   16) = (   0.0000000   0.1250000  -0.1250000), wk =   0.0039062
        k(   17) = (   0.0000000   0.2500000   0.0000000), wk =   0.0039062
        k(   18) = (   0.0000000   0.2500000   0.1250000), wk =   0.0039062
        k(   19) = (   0.0000000   0.2500000   0.2500000), wk =   0.0039062
        k(   20) = (   0.0000000   0.2500000   0.3750000), wk =   0.0039062
        k(   21) = (   0.0000000   0.2500000  -0.5000000), wk =   0.0039062
        k(   22) = (   0.0000000   0.2500000  -0.3750000), wk =   0.0039062
        k(   23) = (   0.0000000   0.2500000  -0.2500000), wk =   0.0039062
        k(   24) = (   0.0000000   0.2500000  -0.1250000), wk =   0.0039062
        k(   25) = (   0.0000000   0.3750000   0.0000000), wk =   0.0039062
        k(   26) = (   0.0000000   0.3750000   0.1250000), wk =   0.0039062
        k(   27) = (   0.0000000   0.3750000   0.2500000), wk =   0.0039062
        k(   28) = (   0.0000000   0.3750000   0.3750000), wk =   0.0039062
        k(   29) = (   0.0000000   0.3750000  -0.5000000), wk =   0.0039062
        k(   30) = (   0.0000000   0.3750000  -0.3750000), wk =   0.0039062
        k(   31) = (   0.0000000   0.3750000  -0.2500000), wk =   0.0039062
        k(   32) = (   0.0000000   0.3750000  -0.1250000), wk =   0.0039062
        k(   33) = (   0.0000000  -0.5000000   0.0000000), wk =   0.0039062
        k(   34) = (   0.0000000  -0.5000000   0.1250000), wk =   0.0039062
        k(   35) = (   0.0000000  -0.5000000   0.2500000), wk =   0.0039062
        k(   36) = (   0.0000000  -0.5000000   0.3750000), wk =   0.0039062
        k(   37) = (   0.0000000  -0.5000000  -0.5000000), wk =   0.0039062
        k(   38) = (   0.0000000  -0.5000000  -0.3750000), wk =   0.0039062
        k(   39) = (   0.0000000  -0.5000000  -0.2500000), wk =   0.0039062
        k(   40) = (   0.0000000  -0.5000000  -0.1250000), wk =   0.0039062
        k(   41) = (   0.0000000  -0.3750000   0.0000000), wk =   0.0039062
        k(   42) = (   0.0000000  -0.3750000   0.1250000), wk =   0.0039062
        k(   43) = (   0.0000000  -0.3750000   0.2500000), wk =   0.0039062
        k(   44) = (   0.0000000  -0.3750000   0.3750000), wk =   0.0039062
        k(   45) = (   0.0000000  -0.3750000  -0.5000000), wk =   0.0039062
        k(   46) = (   0.0000000  -0.3750000  -0.3750000), wk =   0.0039062
        k(   47) = (   0.0000000  -0.3750000  -0.2500000), wk =   0.0039062
        k(   48) = (   0.0000000  -0.3750000  -0.1250000), wk =   0.0039062
        k(   49) = (   0.0000000  -0.2500000   0.0000000), wk =   0.0039062
        k(   50) = (   0.0000000  -0.2500000   0.1250000), wk =   0.0039062
        k(   51) = (   0.0000000  -0.2500000   0.2500000), wk =   0.0039062
        k(   52) = (   0.0000000  -0.2500000   0.3750000), wk =   0.0039062
        k(   53) = (   0.0000000  -0.2500000  -0.5000000), wk =   0.0039062
        k(   54) = (   0.0000000  -0.2500000  -0.3750000), wk =   0.0039062
        k(   55) = (   0.0000000  -0.2500000  -0.2500000), wk =   0.0039062
        k(   56) = (   0.0000000  -0.2500000  -0.1250000), wk =   0.0039062
        k(   57) = (   0.0000000  -0.1250000   0.0000000), wk =   0.0039062
        k(   58) = (   0.0000000  -0.1250000   0.1250000), wk =   0.0039062
        k(   59) = (   0.0000000  -0.1250000   0.2500000), wk =   0.0039062
        k(   60) = (   0.0000000  -0.1250000   0.3750000), wk =   0.0039062
        k(   61) = (   0.0000000  -0.1250000  -0.5000000), wk =   0.0039062
        k(   62) = (   0.0000000  -0.1250000  -0.3750000), wk =   0.0039062
        k(   63) = (   0.0000000  -0.1250000  -0.2500000), wk =   0.0039062
        k(   64) = (   0.0000000  -0.1250000  -0.1250000), wk =   0.0039062
        k(   65) = (   0.1250000   0.0000000   0.0000000), wk =   0.0039062
        k(   66) = (   0.1250000   0.0000000   0.1250000), wk =   0.0039062
        k(   67) = (   0.1250000   0.0000000   0.2500000), wk =   0.0039062
        k(   68) = (   0.1250000   0.0000000   0.3750000), wk =   0.0039062
        k(   69) = (   0.1250000   0.0000000  -0.5000000), wk =   0.0039062
        k(   70) = (   0.1250000   0.0000000  -0.3750000), wk =   0.0039062
        k(   71) = (   0.1250000   0.0000000  -0.2500000), wk =   0.0039062
        k(   72) = (   0.1250000   0.0000000  -0.1250000), wk =   0.0039062
        k(   73) = (   0.1250000   0.1250000   0.0000000), wk =   0.0039062
        k(   74) = (   0.1250000   0.1250000   0.1250000), wk =   0.0039062
        k(   75) = (   0.1250000   0.1250000   0.2500000), wk =   0.0039062
        k(   76) = (   0.1250000   0.1250000   0.3750000), wk =   0.0039062
        k(   77) = (   0.1250000   0.1250000  -0.5000000), wk =   0.0039062
        k(   78) = (   0.1250000   0.1250000  -0.3750000), wk =   0.0039062
        k(   79) = (   0.1250000   0.1250000  -0.2500000), wk =   0.0039062
        k(   80) = (   0.1250000   0.1250000  -0.1250000), wk =   0.0039062
        k(   81) = (   0.1250000   0.2500000   0.0000000), wk =   0.0039062
        k(   82) = (   0.1250000   0.2500000   0.1250000), wk =   0.0039062
        k(   83) = (   0.1250000   0.2500000   0.2500000), wk =   0.0039062
        k(   84) = (   0.1250000   0.2500000   0.3750000), wk =   0.0039062
        k(   85) = (   0.1250000   0.2500000  -0.5000000), wk =   0.0039062
        k(   86) = (   0.1250000   0.2500000  -0.3750000), wk =   0.0039062
        k(   87) = (   0.1250000   0.2500000  -0.2500000), wk =   0.0039062
        k(   88) = (   0.1250000   0.2500000  -0.1250000), wk =   0.0039062
        k(   89) = (   0.1250000   0.3750000   0.0000000), wk =   0.0039062
        k(   90) = (   0.1250000   0.3750000   0.1250000), wk =   0.0039062
        k(   91) = (   0.1250000   0.3750000   0.2500000), wk =   0.0039062
        k(   92) = (   0.1250000   0.3750000   0.3750000), wk =   0.0039062
        k(   93) = (   0.1250000   0.3750000  -0.5000000), wk =   0.0039062
        k(   94) = (   0.1250000   0.3750000  -0.3750000), wk =   0.0039062
        k(   95) = (   0.1250000   0.3750000  -0.2500000), wk =   0.0039062
        k(   96) = (   0.1250000   0.3750000  -0.1250000), wk =   0.0039062
        k(   97) = (   0.1250000  -0.5000000   0.0000000), wk =   0.0039062
        k(   98) = (   0.1250000  -0.5000000   0.1250000), wk =   0.0039062
        k(   99) = (   0.1250000  -0.5000000   0.2500000), wk =   0.0039062
        k(  100) = (   0.1250000  -0.5000000   0.3750000), wk =   0.0039062
        k(  101) = (   0.1250000  -0.5000000  -0.5000000), wk =   0.0039062
        k(  102) = (   0.1250000  -0.5000000  -0.3750000), wk =   0.0039062
        k(  103) = (   0.1250000  -0.5000000  -0.2500000), wk =   0.0039062
        k(  104) = (   0.1250000  -0.5000000  -0.1250000), wk =   0.0039062
        k(  105) = (   0.1250000  -0.3750000   0.0000000), wk =   0.0039062
        k(  106) = (   0.1250000  -0.3750000   0.1250000), wk =   0.0039062
        k(  107) = (   0.1250000  -0.3750000   0.2500000), wk =   0.0039062
        k(  108) = (   0.1250000  -0.3750000   0.3750000), wk =   0.0039062
        k(  109) = (   0.1250000  -0.3750000  -0.5000000), wk =   0.0039062
        k(  110) = (   0.1250000  -0.3750000  -0.3750000), wk =   0.0039062
        k(  111) = (   0.1250000  -0.3750000  -0.2500000), wk =   0.0039062
        k(  112) = (   0.1250000  -0.3750000  -0.1250000), wk =   0.0039062
        k(  113) = (   0.1250000  -0.2500000   0.0000000), wk =   0.0039062
        k(  114) = (   0.1250000  -0.2500000   0.1250000), wk =   0.0039062
        k(  115) = (   0.1250000  -0.2500000   0.2500000), wk =   0.0039062
        k(  116) = (   0.1250000  -0.2500000   0.3750000), wk =   0.0039062
        k(  117) = (   0.1250000  -0.2500000  -0.5000000), wk =   0.0039062
        k(  118) = (   0.1250000  -0.2500000  -0.3750000), wk =   0.0039062
        k(  119) = (   0.1250000  -0.2500000  -0.2500000), wk =   0.0039062
        k(  120) = (   0.1250000  -0.2500000  -0.1250000), wk =   0.0039062
        k(  121) = (   0.1250000  -0.1250000   0.0000000), wk =   0.0039062
        k(  122) = (   0.1250000  -0.1250000   0.1250000), wk =   0.0039062
        k(  123) = (   0.1250000  -0.1250000   0.2500000), wk =   0.0039062
        k(  124) = (   0.1250000  -0.1250000   0.3750000), wk =   0.0039062
        k(  125) = (   0.1250000  -0.1250000  -0.5000000), wk =   0.0039062
        k(  126) = (   0.1250000  -0.1250000  -0.3750000), wk =   0.0039062
        k(  127) = (   0.1250000  -0.1250000  -0.2500000), wk =   0.0039062
        k(  128) = (   0.1250000  -0.1250000  -0.1250000), wk =   0.0039062
        k(  129) = (   0.2500000   0.0000000   0.0000000), wk =   0.0039062
        k(  130) = (   0.2500000   0.0000000   0.1250000), wk =   0.0039062
        k(  131) = (   0.2500000   0.0000000   0.2500000), wk =   0.0039062
        k(  132) = (   0.2500000   0.0000000   0.3750000), wk =   0.0039062
        k(  133) = (   0.2500000   0.0000000  -0.5000000), wk =   0.0039062
        k(  134) = (   0.2500000   0.0000000  -0.3750000), wk =   0.0039062
        k(  135) = (   0.2500000   0.0000000  -0.2500000), wk =   0.0039062
        k(  136) = (   0.2500000   0.0000000  -0.1250000), wk =   0.0039062
        k(  137) = (   0.2500000   0.1250000   0.0000000), wk =   0.0039062
        k(  138) = (   0.2500000   0.1250000   0.1250000), wk =   0.0039062
        k(  139) = (   0.2500000   0.1250000   0.2500000), wk =   0.0039062
        k(  140) = (   0.2500000   0.1250000   0.3750000), wk =   0.0039062
        k(  141) = (   0.2500000   0.1250000  -0.5000000), wk =   0.0039062
        k(  142) = (   0.2500000   0.1250000  -0.3750000), wk =   0.0039062
        k(  143) = (   0.2500000   0.1250000  -0.2500000), wk =   0.0039062
        k(  144) = (   0.2500000   0.1250000  -0.1250000), wk =   0.0039062
        k(  145) = (   0.2500000   0.2500000   0.0000000), wk =   0.0039062
        k(  146) = (   0.2500000   0.2500000   0.1250000), wk =   0.0039062
        k(  147) = (   0.2500000   0.2500000   0.2500000), wk =   0.0039062
        k(  148) = (   0.2500000   0.2500000   0.3750000), wk =   0.0039062
        k(  149) = (   0.2500000   0.2500000  -0.5000000), wk =   0.0039062
        k(  150) = (   0.2500000   0.2500000  -0.3750000), wk =   0.0039062
        k(  151) = (   0.2500000   0.2500000  -0.2500000), wk =   0.0039062
        k(  152) = (   0.2500000   0.2500000  -0.1250000), wk =   0.0039062
        k(  153) = (   0.2500000   0.3750000   0.0000000), wk =   0.0039062
        k(  154) = (   0.2500000   0.3750000   0.1250000), wk =   0.0039062
        k(  155) = (   0.2500000   0.3750000   0.2500000), wk =   0.0039062
        k(  156) = (   0.2500000   0.3750000   0.3750000), wk =   0.0039062
        k(  157) = (   0.2500000   0.3750000  -0.5000000), wk =   0.0039062
        k(  158) = (   0.2500000   0.3750000  -0.3750000), wk =   0.0039062
        k(  159) = (   0.2500000   0.3750000  -0.2500000), wk =   0.0039062
        k(  160) = (   0.2500000   0.3750000  -0.1250000), wk =   0.0039062
        k(  161) = (   0.2500000  -0.5000000   0.0000000), wk =   0.0039062
        k(  162) = (   0.2500000  -0.5000000   0.1250000), wk =   0.0039062
        k(  163) = (   0.2500000  -0.5000000   0.2500000), wk =   0.0039062
        k(  164) = (   0.2500000  -0.5000000   0.3750000), wk =   0.0039062
        k(  165) = (   0.2500000  -0.5000000  -0.5000000), wk =   0.0039062
        k(  166) = (   0.2500000  -0.5000000  -0.3750000), wk =   0.0039062
        k(  167) = (   0.2500000  -0.5000000  -0.2500000), wk =   0.0039062
        k(  168) = (   0.2500000  -0.5000000  -0.1250000), wk =   0.0039062
        k(  169) = (   0.2500000  -0.3750000   0.0000000), wk =   0.0039062
        k(  170) = (   0.2500000  -0.3750000   0.1250000), wk =   0.0039062
        k(  171) = (   0.2500000  -0.3750000   0.2500000), wk =   0.0039062
        k(  172) = (   0.2500000  -0.3750000   0.3750000), wk =   0.0039062
        k(  173) = (   0.2500000  -0.3750000  -0.5000000), wk =   0.0039062
        k(  174) = (   0.2500000  -0.3750000  -0.3750000), wk =   0.0039062
        k(  175) = (   0.2500000  -0.3750000  -0.2500000), wk =   0.0039062
        k(  176) = (   0.2500000  -0.3750000  -0.1250000), wk =   0.0039062
        k(  177) = (   0.2500000  -0.2500000   0.0000000), wk =   0.0039062
        k(  178) = (   0.2500000  -0.2500000   0.1250000), wk =   0.0039062
        k(  179) = (   0.2500000  -0.2500000   0.2500000), wk =   0.0039062
        k(  180) = (   0.2500000  -0.2500000   0.3750000), wk =   0.0039062
        k(  181) = (   0.2500000  -0.2500000  -0.5000000), wk =   0.0039062
        k(  182) = (   0.2500000  -0.2500000  -0.3750000), wk =   0.0039062
        k(  183) = (   0.2500000  -0.2500000  -0.2500000), wk =   0.0039062
        k(  184) = (   0.2500000  -0.2500000  -0.1250000), wk =   0.0039062
        k(  185) = (   0.2500000  -0.1250000   0.0000000), wk =   0.0039062
        k(  186) = (   0.2500000  -0.1250000   0.1250000), wk =   0.0039062
        k(  187) = (   0.2500000  -0.1250000   0.2500000), wk =   0.0039062
        k(  188) = (   0.2500000  -0.1250000   0.3750000), wk =   0.0039062
        k(  189) = (   0.2500000  -0.1250000  -0.5000000), wk =   0.0039062
        k(  190) = (   0.2500000  -0.1250000  -0.3750000), wk =   0.0039062
        k(  191) = (   0.2500000  -0.1250000  -0.2500000), wk =   0.0039062
        k(  192) = (   0.2500000  -0.1250000  -0.1250000), wk =   0.0039062
        k(  193) = (   0.3750000   0.0000000   0.0000000), wk =   0.0039062
        k(  194) = (   0.3750000   0.0000000   0.1250000), wk =   0.0039062
        k(  195) = (   0.3750000   0.0000000   0.2500000), wk =   0.0039062
        k(  196) = (   0.3750000   0.0000000   0.3750000), wk =   0.0039062
        k(  197) = (   0.3750000   0.0000000  -0.5000000), wk =   0.0039062
        k(  198) = (   0.3750000   0.0000000  -0.3750000), wk =   0.0039062
        k(  199) = (   0.3750000   0.0000000  -0.2500000), wk =   0.0039062
        k(  200) = (   0.3750000   0.0000000  -0.1250000), wk =   0.0039062
        k(  201) = (   0.3750000   0.1250000   0.0000000), wk =   0.0039062
        k(  202) = (   0.3750000   0.1250000   0.1250000), wk =   0.0039062
        k(  203) = (   0.3750000   0.1250000   0.2500000), wk =   0.0039062
        k(  204) = (   0.3750000   0.1250000   0.3750000), wk =   0.0039062
        k(  205) = (   0.3750000   0.1250000  -0.5000000), wk =   0.0039062
        k(  206) = (   0.3750000   0.1250000  -0.3750000), wk =   0.0039062
        k(  207) = (   0.3750000   0.1250000  -0.2500000), wk =   0.0039062
        k(  208) = (   0.3750000   0.1250000  -0.1250000), wk =   0.0039062
        k(  209) = (   0.3750000   0.2500000   0.0000000), wk =   0.0039062
        k(  210) = (   0.3750000   0.2500000   0.1250000), wk =   0.0039062
        k(  211) = (   0.3750000   0.2500000   0.2500000), wk =   0.0039062
        k(  212) = (   0.3750000   0.2500000   0.3750000), wk =   0.0039062
        k(  213) = (   0.3750000   0.2500000  -0.5000000), wk =   0.0039062
        k(  214) = (   0.3750000   0.2500000  -0.3750000), wk =   0.0039062
        k(  215) = (   0.3750000   0.2500000  -0.2500000), wk =   0.0039062
        k(  216) = (   0.3750000   0.2500000  -0.1250000), wk =   0.0039062
        k(  217) = (   0.3750000   0.3750000   0.0000000), wk =   0.0039062
        k(  218) = (   0.3750000   0.3750000   0.1250000), wk =   0.0039062
        k(  219) = (   0.3750000   0.3750000   0.2500000), wk =   0.0039062
        k(  220) = (   0.3750000   0.3750000   0.3750000), wk =   0.0039062
        k(  221) = (   0.3750000   0.3750000  -0.5000000), wk =   0.0039062
        k(  222) = (   0.3750000   0.3750000  -0.3750000), wk =   0.0039062
        k(  223) = (   0.3750000   0.3750000  -0.2500000), wk =   0.0039062
        k(  224) = (   0.3750000   0.3750000  -0.1250000), wk =   0.0039062
        k(  225) = (   0.3750000  -0.5000000   0.0000000), wk =   0.0039062
        k(  226) = (   0.3750000  -0.5000000   0.1250000), wk =   0.0039062
        k(  227) = (   0.3750000  -0.5000000   0.2500000), wk =   0.0039062
        k(  228) = (   0.3750000  -0.5000000   0.3750000), wk =   0.0039062
        k(  229) = (   0.3750000  -0.5000000  -0.5000000), wk =   0.0039062
        k(  230) = (   0.3750000  -0.5000000  -0.3750000), wk =   0.0039062
        k(  231) = (   0.3750000  -0.5000000  -0.2500000), wk =   0.0039062
        k(  232) = (   0.3750000  -0.5000000  -0.1250000), wk =   0.0039062
        k(  233) = (   0.3750000  -0.3750000   0.0000000), wk =   0.0039062
        k(  234) = (   0.3750000  -0.3750000   0.1250000), wk =   0.0039062
        k(  235) = (   0.3750000  -0.3750000   0.2500000), wk =   0.0039062
        k(  236) = (   0.3750000  -0.3750000   0.3750000), wk =   0.0039062
        k(  237) = (   0.3750000  -0.3750000  -0.5000000), wk =   0.0039062
        k(  238) = (   0.3750000  -0.3750000  -0.3750000), wk =   0.0039062
        k(  239) = (   0.3750000  -0.3750000  -0.2500000), wk =   0.0039062
        k(  240) = (   0.3750000  -0.3750000  -0.1250000), wk =   0.0039062
        k(  241) = (   0.3750000  -0.2500000   0.0000000), wk =   0.0039062
        k(  242) = (   0.3750000  -0.2500000   0.1250000), wk =   0.0039062
        k(  243) = (   0.3750000  -0.2500000   0.2500000), wk =   0.0039062
        k(  244) = (   0.3750000  -0.2500000   0.3750000), wk =   0.0039062
        k(  245) = (   0.3750000  -0.2500000  -0.5000000), wk =   0.0039062
        k(  246) = (   0.3750000  -0.2500000  -0.3750000), wk =   0.0039062
        k(  247) = (   0.3750000  -0.2500000  -0.2500000), wk =   0.0039062
        k(  248) = (   0.3750000  -0.2500000  -0.1250000), wk =   0.0039062
        k(  249) = (   0.3750000  -0.1250000   0.0000000), wk =   0.0039062
        k(  250) = (   0.3750000  -0.1250000   0.1250000), wk =   0.0039062
        k(  251) = (   0.3750000  -0.1250000   0.2500000), wk =   0.0039062
        k(  252) = (   0.3750000  -0.1250000   0.3750000), wk =   0.0039062
        k(  253) = (   0.3750000  -0.1250000  -0.5000000), wk =   0.0039062
        k(  254) = (   0.3750000  -0.1250000  -0.3750000), wk =   0.0039062
        k(  255) = (   0.3750000  -0.1250000  -0.2500000), wk =   0.0039062
        k(  256) = (   0.3750000  -0.1250000  -0.1250000), wk =   0.0039062
        k(  257) = (  -0.5000000   0.0000000   0.0000000), wk =   0.0039062
        k(  258) = (  -0.5000000   0.0000000   0.1250000), wk =   0.0039062
        k(  259) = (  -0.5000000   0.0000000   0.2500000), wk =   0.0039062
        k(  260) = (  -0.5000000   0.0000000   0.3750000), wk =   0.0039062
        k(  261) = (  -0.5000000   0.0000000  -0.5000000), wk =   0.0039062
        k(  262) = (  -0.5000000   0.0000000  -0.3750000), wk =   0.0039062
        k(  263) = (  -0.5000000   0.0000000  -0.2500000), wk =   0.0039062
        k(  264) = (  -0.5000000   0.0000000  -0.1250000), wk =   0.0039062
        k(  265) = (  -0.5000000   0.1250000   0.0000000), wk =   0.0039062
        k(  266) = (  -0.5000000   0.1250000   0.1250000), wk =   0.0039062
        k(  267) = (  -0.5000000   0.1250000   0.2500000), wk =   0.0039062
        k(  268) = (  -0.5000000   0.1250000   0.3750000), wk =   0.0039062
        k(  269) = (  -0.5000000   0.1250000  -0.5000000), wk =   0.0039062
        k(  270) = (  -0.5000000   0.1250000  -0.3750000), wk =   0.0039062
        k(  271) = (  -0.5000000   0.1250000  -0.2500000), wk =   0.0039062
        k(  272) = (  -0.5000000   0.1250000  -0.1250000), wk =   0.0039062
        k(  273) = (  -0.5000000   0.2500000   0.0000000), wk =   0.0039062
        k(  274) = (  -0.5000000   0.2500000   0.1250000), wk =   0.0039062
        k(  275) = (  -0.5000000   0.2500000   0.2500000), wk =   0.0039062
        k(  276) = (  -0.5000000   0.2500000   0.3750000), wk =   0.0039062
        k(  277) = (  -0.5000000   0.2500000  -0.5000000), wk =   0.0039062
        k(  278) = (  -0.5000000   0.2500000  -0.3750000), wk =   0.0039062
        k(  279) = (  -0.5000000   0.2500000  -0.2500000), wk =   0.0039062
        k(  280) = (  -0.5000000   0.2500000  -0.1250000), wk =   0.0039062
        k(  281) = (  -0.5000000   0.3750000   0.0000000), wk =   0.0039062
        k(  282) = (  -0.5000000   0.3750000   0.1250000), wk =   0.0039062
        k(  283) = (  -0.5000000   0.3750000   0.2500000), wk =   0.0039062
        k(  284) = (  -0.5000000   0.3750000   0.3750000), wk =   0.0039062
        k(  285) = (  -0.5000000   0.3750000  -0.5000000), wk =   0.0039062
        k(  286) = (  -0.5000000   0.3750000  -0.3750000), wk =   0.0039062
        k(  287) = (  -0.5000000   0.3750000  -0.2500000), wk =   0.0039062
        k(  288) = (  -0.5000000   0.3750000  -0.1250000), wk =   0.0039062
        k(  289) = (  -0.5000000  -0.5000000   0.0000000), wk =   0.0039062
        k(  290) = (  -0.5000000  -0.5000000   0.1250000), wk =   0.0039062
        k(  291) = (  -0.5000000  -0.5000000   0.2500000), wk =   0.0039062
        k(  292) = (  -0.5000000  -0.5000000   0.3750000), wk =   0.0039062
        k(  293) = (  -0.5000000  -0.5000000  -0.5000000), wk =   0.0039062
        k(  294) = (  -0.5000000  -0.5000000  -0.3750000), wk =   0.0039062
        k(  295) = (  -0.5000000  -0.5000000  -0.2500000), wk =   0.0039062
        k(  296) = (  -0.5000000  -0.5000000  -0.1250000), wk =   0.0039062
        k(  297) = (  -0.5000000  -0.3750000   0.0000000), wk =   0.0039062
        k(  298) = (  -0.5000000  -0.3750000   0.1250000), wk =   0.0039062
        k(  299) = (  -0.5000000  -0.3750000   0.2500000), wk =   0.0039062
        k(  300) = (  -0.5000000  -0.3750000   0.3750000), wk =   0.0039062
        k(  301) = (  -0.5000000  -0.3750000  -0.5000000), wk =   0.0039062
        k(  302) = (  -0.5000000  -0.3750000  -0.3750000), wk =   0.0039062
        k(  303) = (  -0.5000000  -0.3750000  -0.2500000), wk =   0.0039062
        k(  304) = (  -0.5000000  -0.3750000  -0.1250000), wk =   0.0039062
        k(  305) = (  -0.5000000  -0.2500000   0.0000000), wk =   0.0039062
        k(  306) = (  -0.5000000  -0.2500000   0.1250000), wk =   0.0039062
        k(  307) = (  -0.5000000  -0.2500000   0.2500000), wk =   0.0039062
        k(  308) = (  -0.5000000  -0.2500000   0.3750000), wk =   0.0039062
        k(  309) = (  -0.5000000  -0.2500000  -0.5000000), wk =   0.0039062
        k(  310) = (  -0.5000000  -0.2500000  -0.3750000), wk =   0.0039062
        k(  311) = (  -0.5000000  -0.2500000  -0.2500000), wk =   0.0039062
        k(  312) = (  -0.5000000  -0.2500000  -0.1250000), wk =   0.0039062
        k(  313) = (  -0.5000000  -0.1250000   0.0000000), wk =   0.0039062
        k(  314) = (  -0.5000000  -0.1250000   0.1250000), wk =   0.0039062
        k(  315) = (  -0.5000000  -0.1250000   0.2500000), wk =   0.0039062
        k(  316) = (  -0.5000000  -0.1250000   0.3750000), wk =   0.0039062
        k(  317) = (  -0.5000000  -0.1250000  -0.5000000), wk =   0.0039062
        k(  318) = (  -0.5000000  -0.1250000  -0.3750000), wk =   0.0039062
        k(  319) = (  -0.5000000  -0.1250000  -0.2500000), wk =   0.0039062
        k(  320) = (  -0.5000000  -0.1250000  -0.1250000), wk =   0.0039062
        k(  321) = (  -0.3750000   0.0000000   0.0000000), wk =   0.0039062
        k(  322) = (  -0.3750000   0.0000000   0.1250000), wk =   0.0039062
        k(  323) = (  -0.3750000   0.0000000   0.2500000), wk =   0.0039062
        k(  324) = (  -0.3750000   0.0000000   0.3750000), wk =   0.0039062
        k(  325) = (  -0.3750000   0.0000000  -0.5000000), wk =   0.0039062
        k(  326) = (  -0.3750000   0.0000000  -0.3750000), wk =   0.0039062
        k(  327) = (  -0.3750000   0.0000000  -0.2500000), wk =   0.0039062
        k(  328) = (  -0.3750000   0.0000000  -0.1250000), wk =   0.0039062
        k(  329) = (  -0.3750000   0.1250000   0.0000000), wk =   0.0039062
        k(  330) = (  -0.3750000   0.1250000   0.1250000), wk =   0.0039062
        k(  331) = (  -0.3750000   0.1250000   0.2500000), wk =   0.0039062
        k(  332) = (  -0.3750000   0.1250000   0.3750000), wk =   0.0039062
        k(  333) = (  -0.3750000   0.1250000  -0.5000000), wk =   0.0039062
        k(  334) = (  -0.3750000   0.1250000  -0.3750000), wk =   0.0039062
        k(  335) = (  -0.3750000   0.1250000  -0.2500000), wk =   0.0039062
        k(  336) = (  -0.3750000   0.1250000  -0.1250000), wk =   0.0039062
        k(  337) = (  -0.3750000   0.2500000   0.0000000), wk =   0.0039062
        k(  338) = (  -0.3750000   0.2500000   0.1250000), wk =   0.0039062
        k(  339) = (  -0.3750000   0.2500000   0.2500000), wk =   0.0039062
        k(  340) = (  -0.3750000   0.2500000   0.3750000), wk =   0.0039062
        k(  341) = (  -0.3750000   0.2500000  -0.5000000), wk =   0.0039062
        k(  342) = (  -0.3750000   0.2500000  -0.3750000), wk =   0.0039062
        k(  343) = (  -0.3750000   0.2500000  -0.2500000), wk =   0.0039062
        k(  344) = (  -0.3750000   0.2500000  -0.1250000), wk =   0.0039062
        k(  345) = (  -0.3750000   0.3750000   0.0000000), wk =   0.0039062
        k(  346) = (  -0.3750000   0.3750000   0.1250000), wk =   0.0039062
        k(  347) = (  -0.3750000   0.3750000   0.2500000), wk =   0.0039062
        k(  348) = (  -0.3750000   0.3750000   0.3750000), wk =   0.0039062
        k(  349) = (  -0.3750000   0.3750000  -0.5000000), wk =   0.0039062
        k(  350) = (  -0.3750000   0.3750000  -0.3750000), wk =   0.0039062
        k(  351) = (  -0.3750000   0.3750000  -0.2500000), wk =   0.0039062
        k(  352) = (  -0.3750000   0.3750000  -0.1250000), wk =   0.0039062
        k(  353) = (  -0.3750000  -0.5000000   0.0000000), wk =   0.0039062
        k(  354) = (  -0.3750000  -0.5000000   0.1250000), wk =   0.0039062
        k(  355) = (  -0.3750000  -0.5000000   0.2500000), wk =   0.0039062
        k(  356) = (  -0.3750000  -0.5000000   0.3750000), wk =   0.0039062
        k(  357) = (  -0.3750000  -0.5000000  -0.5000000), wk =   0.0039062
        k(  358) = (  -0.3750000  -0.5000000  -0.3750000), wk =   0.0039062
        k(  359) = (  -0.3750000  -0.5000000  -0.2500000), wk =   0.0039062
        k(  360) = (  -0.3750000  -0.5000000  -0.1250000), wk =   0.0039062
        k(  361) = (  -0.3750000  -0.3750000   0.0000000), wk =   0.0039062
        k(  362) = (  -0.3750000  -0.3750000   0.1250000), wk =   0.0039062
        k(  363) = (  -0.3750000  -0.3750000   0.2500000), wk =   0.0039062
        k(  364) = (  -0.3750000  -0.3750000   0.3750000), wk =   0.0039062
        k(  365) = (  -0.3750000  -0.3750000  -0.5000000), wk =   0.0039062
        k(  366) = (  -0.3750000  -0.3750000  -0.3750000), wk =   0.0039062
        k(  367) = (  -0.3750000  -0.3750000  -0.2500000), wk =   0.0039062
        k(  368) = (  -0.3750000  -0.3750000  -0.1250000), wk =   0.0039062
        k(  369) = (  -0.3750000  -0.2500000   0.0000000), wk =   0.0039062
        k(  370) = (  -0.3750000  -0.2500000   0.1250000), wk =   0.0039062
        k(  371) = (  -0.3750000  -0.2500000   0.2500000), wk =   0.0039062
        k(  372) = (  -0.3750000  -0.2500000   0.3750000), wk =   0.0039062
        k(  373) = (  -0.3750000  -0.2500000  -0.5000000), wk =   0.0039062
        k(  374) = (  -0.3750000  -0.2500000  -0.3750000), wk =   0.0039062
        k(  375) = (  -0.3750000  -0.2500000  -0.2500000), wk =   0.0039062
        k(  376) = (  -0.3750000  -0.2500000  -0.1250000), wk =   0.0039062
        k(  377) = (  -0.3750000  -0.1250000   0.0000000), wk =   0.0039062
        k(  378) = (  -0.3750000  -0.1250000   0.1250000), wk =   0.0039062
        k(  379) = (  -0.3750000  -0.1250000   0.2500000), wk =   0.0039062
        k(  380) = (  -0.3750000  -0.1250000   0.3750000), wk =   0.0039062
        k(  381) = (  -0.3750000  -0.1250000  -0.5000000), wk =   0.0039062
        k(  382) = (  -0.3750000  -0.1250000  -0.3750000), wk =   0.0039062
        k(  383) = (  -0.3750000  -0.1250000  -0.2500000), wk =   0.0039062
        k(  384) = (  -0.3750000  -0.1250000  -0.1250000), wk =   0.0039062
        k(  385) = (  -0.2500000   0.0000000   0.0000000), wk =   0.0039062
        k(  386) = (  -0.2500000   0.0000000   0.1250000), wk =   0.0039062
        k(  387) = (  -0.2500000   0.0000000   0.2500000), wk =   0.0039062
        k(  388) = (  -0.2500000   0.0000000   0.3750000), wk =   0.0039062
        k(  389) = (  -0.2500000   0.0000000  -0.5000000), wk =   0.0039062
        k(  390) = (  -0.2500000   0.0000000  -0.3750000), wk =   0.0039062
        k(  391) = (  -0.2500000   0.0000000  -0.2500000), wk =   0.0039062
        k(  392) = (  -0.2500000   0.0000000  -0.1250000), wk =   0.0039062
        k(  393) = (  -0.2500000   0.1250000   0.0000000), wk =   0.0039062
        k(  394) = (  -0.2500000   0.1250000   0.1250000), wk =   0.0039062
        k(  395) = (  -0.2500000   0.1250000   0.2500000), wk =   0.0039062
        k(  396) = (  -0.2500000   0.1250000   0.3750000), wk =   0.0039062
        k(  397) = (  -0.2500000   0.1250000  -0.5000000), wk =   0.0039062
        k(  398) = (  -0.2500000   0.1250000  -0.3750000), wk =   0.0039062
        k(  399) = (  -0.2500000   0.1250000  -0.2500000), wk =   0.0039062
        k(  400) = (  -0.2500000   0.1250000  -0.1250000), wk =   0.0039062
        k(  401) = (  -0.2500000   0.2500000   0.0000000), wk =   0.0039062
        k(  402) = (  -0.2500000   0.2500000   0.1250000), wk =   0.0039062
        k(  403) = (  -0.2500000   0.2500000   0.2500000), wk =   0.0039062
        k(  404) = (  -0.2500000   0.2500000   0.3750000), wk =   0.0039062
        k(  405) = (  -0.2500000   0.2500000  -0.5000000), wk =   0.0039062
        k(  406) = (  -0.2500000   0.2500000  -0.3750000), wk =   0.0039062
        k(  407) = (  -0.2500000   0.2500000  -0.2500000), wk =   0.0039062
        k(  408) = (  -0.2500000   0.2500000  -0.1250000), wk =   0.0039062
        k(  409) = (  -0.2500000   0.3750000   0.0000000), wk =   0.0039062
        k(  410) = (  -0.2500000   0.3750000   0.1250000), wk =   0.0039062
        k(  411) = (  -0.2500000   0.3750000   0.2500000), wk =   0.0039062
        k(  412) = (  -0.2500000   0.3750000   0.3750000), wk =   0.0039062
        k(  413) = (  -0.2500000   0.3750000  -0.5000000), wk =   0.0039062
        k(  414) = (  -0.2500000   0.3750000  -0.3750000), wk =   0.0039062
        k(  415) = (  -0.2500000   0.3750000  -0.2500000), wk =   0.0039062
        k(  416) = (  -0.2500000   0.3750000  -0.1250000), wk =   0.0039062
        k(  417) = (  -0.2500000  -0.5000000   0.0000000), wk =   0.0039062
        k(  418) = (  -0.2500000  -0.5000000   0.1250000), wk =   0.0039062
        k(  419) = (  -0.2500000  -0.5000000   0.2500000), wk =   0.0039062
        k(  420) = (  -0.2500000  -0.5000000   0.3750000), wk =   0.0039062
        k(  421) = (  -0.2500000  -0.5000000  -0.5000000), wk =   0.0039062
        k(  422) = (  -0.2500000  -0.5000000  -0.3750000), wk =   0.0039062
        k(  423) = (  -0.2500000  -0.5000000  -0.2500000), wk =   0.0039062
        k(  424) = (  -0.2500000  -0.5000000  -0.1250000), wk =   0.0039062
        k(  425) = (  -0.2500000  -0.3750000   0.0000000), wk =   0.0039062
        k(  426) = (  -0.2500000  -0.3750000   0.1250000), wk =   0.0039062
        k(  427) = (  -0.2500000  -0.3750000   0.2500000), wk =   0.0039062
        k(  428) = (  -0.2500000  -0.3750000   0.3750000), wk =   0.0039062
        k(  429) = (  -0.2500000  -0.3750000  -0.5000000), wk =   0.0039062
        k(  430) = (  -0.2500000  -0.3750000  -0.3750000), wk =   0.0039062
        k(  431) = (  -0.2500000  -0.3750000  -0.2500000), wk =   0.0039062
        k(  432) = (  -0.2500000  -0.3750000  -0.1250000), wk =   0.0039062
        k(  433) = (  -0.2500000  -0.2500000   0.0000000), wk =   0.0039062
        k(  434) = (  -0.2500000  -0.2500000   0.1250000), wk =   0.0039062
        k(  435) = (  -0.2500000  -0.2500000   0.2500000), wk =   0.0039062
        k(  436) = (  -0.2500000  -0.2500000   0.3750000), wk =   0.0039062
        k(  437) = (  -0.2500000  -0.2500000  -0.5000000), wk =   0.0039062
        k(  438) = (  -0.2500000  -0.2500000  -0.3750000), wk =   0.0039062
        k(  439) = (  -0.2500000  -0.2500000  -0.2500000), wk =   0.0039062
        k(  440) = (  -0.2500000  -0.2500000  -0.1250000), wk =   0.0039062
        k(  441) = (  -0.2500000  -0.1250000   0.0000000), wk =   0.0039062
        k(  442) = (  -0.2500000  -0.1250000   0.1250000), wk =   0.0039062
        k(  443) = (  -0.2500000  -0.1250000   0.2500000), wk =   0.0039062
        k(  444) = (  -0.2500000  -0.1250000   0.3750000), wk =   0.0039062
        k(  445) = (  -0.2500000  -0.1250000  -0.5000000), wk =   0.0039062
        k(  446) = (  -0.2500000  -0.1250000  -0.3750000), wk =   0.0039062
        k(  447) = (  -0.2500000  -0.1250000  -0.2500000), wk =   0.0039062
        k(  448) = (  -0.2500000  -0.1250000  -0.1250000), wk =   0.0039062
        k(  449) = (  -0.1250000   0.0000000   0.0000000), wk =   0.0039062
        k(  450) = (  -0.1250000   0.0000000   0.1250000), wk =   0.0039062
        k(  451) = (  -0.1250000   0.0000000   0.2500000), wk =   0.0039062
        k(  452) = (  -0.1250000   0.0000000   0.3750000), wk =   0.0039062
        k(  453) = (  -0.1250000   0.0000000  -0.5000000), wk =   0.0039062
        k(  454) = (  -0.1250000   0.0000000  -0.3750000), wk =   0.0039062
        k(  455) = (  -0.1250000   0.0000000  -0.2500000), wk =   0.0039062
        k(  456) = (  -0.1250000   0.0000000  -0.1250000), wk =   0.0039062
        k(  457) = (  -0.1250000   0.1250000   0.0000000), wk =   0.0039062
        k(  458) = (  -0.1250000   0.1250000   0.1250000), wk =   0.0039062
        k(  459) = (  -0.1250000   0.1250000   0.2500000), wk =   0.0039062
        k(  460) = (  -0.1250000   0.1250000   0.3750000), wk =   0.0039062
        k(  461) = (  -0.1250000   0.1250000  -0.5000000), wk =   0.0039062
        k(  462) = (  -0.1250000   0.1250000  -0.3750000), wk =   0.0039062
        k(  463) = (  -0.1250000   0.1250000  -0.2500000), wk =   0.0039062
        k(  464) = (  -0.1250000   0.1250000  -0.1250000), wk =   0.0039062
        k(  465) = (  -0.1250000   0.2500000   0.0000000), wk =   0.0039062
        k(  466) = (  -0.1250000   0.2500000   0.1250000), wk =   0.0039062
        k(  467) = (  -0.1250000   0.2500000   0.2500000), wk =   0.0039062
        k(  468) = (  -0.1250000   0.2500000   0.3750000), wk =   0.0039062
        k(  469) = (  -0.1250000   0.2500000  -0.5000000), wk =   0.0039062
        k(  470) = (  -0.1250000   0.2500000  -0.3750000), wk =   0.0039062
        k(  471) = (  -0.1250000   0.2500000  -0.2500000), wk =   0.0039062
        k(  472) = (  -0.1250000   0.2500000  -0.1250000), wk =   0.0039062
        k(  473) = (  -0.1250000   0.3750000   0.0000000), wk =   0.0039062
        k(  474) = (  -0.1250000   0.3750000   0.1250000), wk =   0.0039062
        k(  475) = (  -0.1250000   0.3750000   0.2500000), wk =   0.0039062
        k(  476) = (  -0.1250000   0.3750000   0.3750000), wk =   0.0039062
        k(  477) = (  -0.1250000   0.3750000  -0.5000000), wk =   0.0039062
        k(  478) = (  -0.1250000   0.3750000  -0.3750000), wk =   0.0039062
        k(  479) = (  -0.1250000   0.3750000  -0.2500000), wk =   0.0039062
        k(  480) = (  -0.1250000   0.3750000  -0.1250000), wk =   0.0039062
        k(  481) = (  -0.1250000  -0.5000000   0.0000000), wk =   0.0039062
        k(  482) = (  -0.1250000  -0.5000000   0.1250000), wk =   0.0039062
        k(  483) = (  -0.1250000  -0.5000000   0.2500000), wk =   0.0039062
        k(  484) = (  -0.1250000  -0.5000000   0.3750000), wk =   0.0039062
        k(  485) = (  -0.1250000  -0.5000000  -0.5000000), wk =   0.0039062
        k(  486) = (  -0.1250000  -0.5000000  -0.3750000), wk =   0.0039062
[...]

    -2.6190  -0.5862   9.1970  13.8282  16.5070  18.1637  18.2698  19.8234

     occupation numbers 
     1.0000   1.0000   1.0000   0.0000   0.0000   0.0000   0.0000   0.0000

          k =-0.1250 0.0722-0.1463 (   815 PWs)   bands (ev):

    -3.0770   0.4854   7.1238  15.4994  16.8953  17.8451  19.0806  20.1332

     occupation numbers 
     1.0000   1.0000   1.0000   0.0000   0.0000   0.0000   0.0000   0.0000

          k =-0.1250 0.0722-0.0731 (   820 PWs)   bands (ev):

    -3.3738   1.7810   5.2381  15.5388  17.5759  18.9086  19.9393  20.2489

     occupation numbers 
     1.0000   1.0000   1.0000   0.0000   0.0000   0.0000   0.0000   0.0000

          k =-0.1250 0.2165 0.0000 (   819 PWs)   bands (ev):

    -2.6425   3.6949   4.7373  13.0475  13.5833  18.6254  18.6556  19.2533

     occupation numbers 
     1.0000   1.0000   1.0000   0.0000   0.0000   0.0000   0.0000   0.0000

          k =-0.1250 0.2165 0.0731 (   820 PWs)   bands (ev):

    -2.5419   2.5935   6.0348  13.1212  13.6682  17.7222  18.1373  19.3167

     occupation numbers 
     1.0000   1.0000   1.0000   0.0000   0.0000   0.0000   0.0000   0.0000

          k =-0.1250 0.2165 0.1463 (   819 PWs)   bands (ev):

    -2.2461   1.3034   7.9093  13.3389  13.9020  16.6319  17.1278  17.4916

     occupation numbers 
     1.0000   1.0000   1.0000   0.0000   0.0000   0.0000   0.0000   0.0000

          k =-0.1250 0.2165 0.2194 (   824 PWs)   bands (ev):

    -1.7901   0.2372   9.9592  13.4790  14.1654  15.3157  15.7542  16.3782

     occupation numbers 
     1.0000   1.0000   1.0000   0.0000   0.0000   0.0000   0.0000   0.0000

          k =-0.1250 0.2165-0.2925 (   820 PWs)   bands (ev):

    -1.4395  -0.3174  11.7574  12.4787  14.1984  14.8922  15.3078  15.9423

     occupation numbers 
     1.0000   1.0000   0.0000   0.0000   0.0000   0.0000   0.0000   0.0000

          k =-0.1250 0.2165-0.2194 (   824 PWs)   bands (ev):

    -1.7905   0.2389   9.9295  13.7018  14.0244  15.2300  15.7818  16.3758

     occupation numbers 
     1.0000   1.0000   1.0000   0.0000   0.0000   0.0000   0.0000   0.0000

          k =-0.1250 0.2165-0.1463 (   819 PWs)   bands (ev):

    -2.2466   1.3061   7.8935  13.4027  13.8811  16.6767  17.0457  17.4744

     occupation numbers 
     1.0000   1.0000   1.0000   0.0000   0.0000   0.0000   0.0000   0.0000

          k =-0.1250 0.2165-0.0731 (   820 PWs)   bands (ev):

    -2.5421   2.5972   6.0255  13.1436  13.6622  17.7633  18.1075  19.2377

     occupation numbers 
     1.0000   1.0000   1.0000   0.0000   0.0000   0.0000   0.0000   0.0000

          k =-0.1250 0.3608 0.0000 (   829 PWs)   bands (ev):

    -0.9863   5.3015   6.3186   8.7114  11.8290  14.5332  15.5710  17.3346

     occupation numbers 
     1.0000   1.0000   1.0000   1.0000   0.0000   0.0000   0.0000   0.0000

          k =-0.1250 0.3608 0.0731 (   826 PWs)   bands (ev):

    -0.8863   4.2080   7.5961   8.8112  11.9107  13.6083  16.1654  17.1530

     occupation numbers 
     1.0000   1.0000   1.0000   1.0000   0.0000   0.0000   0.0000   0.0000

          k =-0.1250 0.3608 0.1463 (   828 PWs)   bands (ev):

    -0.5932   2.9307   9.0187   9.4957  12.1490  12.4407  15.5042  17.8011

     occupation numbers 
     1.0000   1.0000   1.0000   1.0000   0.0000   0.0000   0.0000   0.0000

          k =-0.1250 0.3608 0.2194 (   831 PWs)   bands (ev):

    -0.1413   1.8751   9.4737  11.2584  11.5901  12.5372  14.6537  16.3943

     occupation numbers 
     1.0000   1.0000   1.0000   0.0000   0.0000   0.0000   0.0000   0.0000

          k =-0.1250 0.3608-0.2925 (   834 PWs)   bands (ev):

     0.2038   1.3279   9.7899  10.9200  12.3976  13.3222  14.0750  15.0006

     occupation numbers 
     1.0000   1.0000   1.0000   0.0043   0.0000   0.0000   0.0000   0.0000

          k =-0.1250 0.3608-0.2194 (   831 PWs)   bands (ev):

    -0.1425   1.8782   9.4763  11.3087  11.4343  12.6323  14.7249  16.3339

     occupation numbers 
     1.0000   1.0000   1.0000   0.0000   0.0000   0.0000   0.0000   0.0000

          k =-0.1250 0.3608-0.1463 (   828 PWs)   bands (ev):

    -0.5941   2.9357   9.0135   9.4752  12.1428  12.4494  15.5976  17.6960

     occupation numbers 
     1.0000   1.0000   1.0000   1.0000   0.0000   0.0000   0.0000   0.0000

          k =-0.1250 0.3608-0.0731 (   826 PWs)   bands (ev):

    -0.8868   4.2150   7.5783   8.8135  11.9180  13.5784  16.4208  16.9082

     occupation numbers 
     1.0000   1.0000   1.0000   1.0000   0.0000   0.0000   0.0000   0.0000

          k =-0.1250-0.6495 0.0000 (   835 PWs)   bands (ev):

     1.4733   4.7132   7.7167   8.6587  10.7666  11.1230  11.8553  16.6421

     occupation numbers 
     1.0000   1.0000   1.0000   1.0000   0.6275   0.0000   0.0000   0.0000

          k =-0.1250-0.6495 0.0731 (   834 PWs)   bands (ev):

     1.5720   4.8044   6.6315   9.6332  10.1025  11.1551  12.9934  16.0435

     occupation numbers 
     1.0000   1.0000   1.0000   1.0000   1.0000   0.0000   0.0000   0.0000

          k =-0.1250-0.6495 0.1463 (   830 PWs)   bands (ev):

     1.8613   5.0169   5.4430   8.5417  11.3860  11.7425  14.3172  15.4534

     occupation numbers 
     1.0000   1.0000   1.0000   1.0000   0.0000   0.0000   0.0000   0.0000

          k =-0.1250-0.6495 0.2194 (   825 PWs)   bands (ev):

     2.3055   4.2900   5.5645   7.5296  11.7747  13.1181  14.4677  16.5876

     occupation numbers 
     1.0000   1.0000   1.0000   1.0000   0.0000   0.0000   0.0000   0.0000

          k =-0.1250-0.6495-0.2925 (   834 PWs)   bands (ev):

     2.6418   3.7636   5.8840   7.0049  12.0315  13.0822  15.7318  16.4148

     occupation numbers 
     1.0000   1.0000   1.0000   1.0000   0.0000   0.0000   0.0000   0.0000

          k =-0.1250-0.6495-0.2194 (   825 PWs)   bands (ev):

     2.3033   4.2961   5.5652   7.5253  11.7602  13.0456  14.6333  16.4940

     occupation numbers 
     1.0000   1.0000   1.0000   1.0000   0.0000   0.0000   0.0000   0.0000

          k =-0.1250-0.6495-0.1463 (   830 PWs)   bands (ev):

     1.8598   5.0249   5.4435   8.5387  11.2935  11.7757  14.5606  15.2642

     occupation numbers 
     1.0000   1.0000   1.0000   1.0000   0.0000   0.0000   0.0000   0.0000

          k =-0.1250-0.6495-0.0731 (   834 PWs)   bands (ev):

     1.5712   4.8061   6.6399   9.7516   9.9018  11.1943  13.0595  16.0088

     occupation numbers 
     1.0000   1.0000   1.0000   1.0000   1.0000   0.0000   0.0000   0.0000

          k =-0.1250-0.5052 0.0000 (   835 PWs)   bands (ev):

     1.4816   4.6982   7.7160   8.7113  10.7813  11.1043  11.7695  16.6438

     occupation numbers 
     1.0000   1.0000   1.0000   1.0000   0.4872   0.0000   0.0000   0.0000

          k =-0.1250-0.5052 0.0731 (   834 PWs)   bands (ev):

     1.5796   4.7911   6.6491   9.7350   9.9572  11.1985  12.9387  16.0613

     occupation numbers 
     1.0000   1.0000   1.0000   1.0000   1.0000   0.0000   0.0000   0.0000

          k =-0.1250-0.5052 0.1463 (   830 PWs)   bands (ev):

     1.8684   5.0128   5.4492   8.5209  11.3733  11.8081  14.1537  15.5689

     occupation numbers 
     1.0000   1.0000   1.0000   1.0000   0.0000   0.0000   0.0000   0.0000

          k =-0.1250-0.5052 0.2194 (   825 PWs)   bands (ev):

     2.3125   4.3029   5.5499   7.5104  11.8093  13.2360  14.2584  16.5991

     occupation numbers 
     1.0000   1.0000   1.0000   1.0000   0.0000   0.0000   0.0000   0.0000

          k =-0.1250-0.5052-0.2925 (   834 PWs)   bands (ev):

     2.6517   3.7700   5.8665   6.9928  12.0906  13.1438  15.5914  16.2263

     occupation numbers 
     1.0000   1.0000   1.0000   1.0000   0.0000   0.0000   0.0000   0.0000

          k =-0.1250-0.5052-0.2194 (   825 PWs)   bands (ev):

     2.3143   4.2975   5.5490   7.5159  11.8138  13.3780  14.0510  16.6719

     occupation numbers 
     1.0000   1.0000   1.0000   1.0000   0.0000   0.0000   0.0000   0.0000

          k =-0.1250-0.5052-0.1463 (   830 PWs)   bands (ev):

     1.8697   5.0052   5.4493   8.5263  11.4238  11.8193  13.9937  15.6585

     occupation numbers 
     1.0000   1.0000   1.0000   1.0000   0.0000   0.0000   0.0000   0.0000

          k =-0.1250-0.5052-0.0731 (   834 PWs)   bands (ev):

     1.5803   4.7894   6.6427   9.6387  10.1312  11.1599  12.8796  16.0895

     occupation numbers 
     1.0000   1.0000   1.0000   1.0000   1.0000   0.0000   0.0000   0.0000

          k =-0.1250-0.3608 0.0000 (   829 PWs)   bands (ev):

    -0.9812   5.3004   6.3446   8.6766  11.8890  14.5236  15.3246  17.3358

     occupation numbers 
     1.0000   1.0000   1.0000   1.0000   0.0000   0.0000   0.0000   0.0000

          k =-0.1250-0.3608 0.0731 (   826 PWs)   bands (ev):

    -0.8817   4.2196   7.6023   8.7802  11.9772  13.5331  16.0304  17.1586

     occupation numbers 
     1.0000   1.0000   1.0000   1.0000   0.0000   0.0000   0.0000   0.0000

          k =-0.1250-0.3608 0.1463 (   828 PWs)   bands (ev):

    -0.5889   2.9404   8.9810   9.5166  12.1859  12.4280  15.4430  17.6606

     occupation numbers 
     1.0000   1.0000   1.0000   1.0000   0.0000   0.0000   0.0000   0.0000

          k =-0.1250-0.3608 0.2194 (   831 PWs)   bands (ev):

    -0.1371   1.8826   9.4359  11.3613  11.4735  12.6866  14.6046  16.1307

     occupation numbers 
     1.0000   1.0000   1.0000   0.0000   0.0000   0.0000   0.0000   0.0000

          k =-0.1250-0.3608-0.2925 (   834 PWs)   bands (ev):

     0.2096   1.3320   9.7451  10.8913  12.6937  13.6176  13.7226  14.6251

     occupation numbers 
     1.0000   1.0000   1.0000   0.0130   0.0000   0.0000   0.0000   0.0000

          k =-0.1250-0.3608-0.2194 (   831 PWs)   bands (ev):

    -0.1361   1.8800   9.4329  11.2873  11.6422  12.6200  14.5029  16.1952

     occupation numbers 
     1.0000   1.0000   1.0000   0.0000   0.0000   0.0000   0.0000   0.0000

          k =-0.1250-0.3608-0.1463 (   828 PWs)   bands (ev):

    -0.5881   2.9362   8.9849   9.5317  12.2322  12.3928  15.3375  17.7599

     occupation numbers 
     1.0000   1.0000   1.0000   1.0000   0.0000   0.0000   0.0000   0.0000

          k =-0.1250-0.3608-0.0731 (   826 PWs)   bands (ev):

    -0.8813   4.2136   7.6174   8.7771  11.9760  13.5639  15.8743  17.2803

     occupation numbers 
     1.0000   1.0000   1.0000   1.0000   0.0000   0.0000   0.0000   0.0000

          k =-0.1250-0.2165 0.0000 (   819 PWs)   bands (ev):

    -2.6397   3.6946   4.7497  12.8434  13.8536  18.4964  18.6962  18.7555

     occupation numbers 
     1.0000   1.0000   1.0000   0.0000   0.0000   0.0000   0.0000   0.0000

          k =-0.1250-0.2165 0.0731 (   820 PWs)   bands (ev):

    -2.5393   2.5996   6.0375  12.9369  13.9396  17.5392  18.1183  19.0488

     occupation numbers 
     1.0000   1.0000   1.0000   0.0000   0.0000   0.0000   0.0000   0.0000

          k =-0.1250-0.2165 0.1463 (   819 PWs)   bands (ev):

    -2.2437   1.3085   7.9121  13.1994  14.1857  16.4388  17.0764  17.3447

     occupation numbers 
     1.0000   1.0000   1.0000   0.0000   0.0000   0.0000   0.0000   0.0000

          k =-0.1250-0.2165 0.2194 (   824 PWs)   bands (ev):

    -1.7878   0.2411   9.9673  13.5946  14.2997  15.0376  15.5344  16.4451

     occupation numbers 
     1.0000   1.0000   1.0000   0.0000   0.0000   0.0000   0.0000   0.0000

          k =-0.1250-0.2165-0.2925 (   820 PWs)   bands (ev):

    -1.4364  -0.3152  11.8624  12.5555  13.9260  15.0114  15.0826  15.9840

     occupation numbers 
     1.0000   1.0000   0.0000   0.0000   0.0000   0.0000   0.0000   0.0000

          k =-0.1250-0.2165-0.2194 (   824 PWs)   bands (ev):

    -1.7872   0.2398   9.9919  13.4506  14.3904  15.0691  15.5365  16.4446

     occupation numbers 
     1.0000   1.0000   1.0000   0.0000   0.0000   0.0000   0.0000   0.0000

          k =-0.1250-0.2165-0.1463 (   819 PWs)   bands (ev):

    -2.2433   1.3063   7.9250  13.1633  14.1907  16.3991  17.1371  17.3513

     occupation numbers 
     1.0000   1.0000   1.0000   0.0000   0.0000   0.0000   0.0000   0.0000

          k =-0.1250-0.2165-0.0731 (   820 PWs)   bands (ev):

    -2.5391   2.5965   6.0450  12.9238  13.9409  17.5156  18.1112  19.1183

     occupation numbers 
     1.0000   1.0000   1.0000   0.0000   0.0000   0.0000   0.0000   0.0000

     the Fermi energy is    10.7800 ev

!    total energy              =     -15.78052258 Ry
     estimated scf accuracy    <       0.00917780 Ry
     smearing contrib. (-TS)   =      -0.00023446 Ry
     internal energy E=F+TS    =     -15.78028812 Ry

     The total energy is F=E-TS. E is the sum of the following terms:
     one-electron contribution =       9.06115297 Ry
     hartree contribution      =       0.12117063 Ry
     xc contribution           =      -4.91166874 Ry
     ewald contribution        =     -20.05094298 Ry

     convergence has been achieved in   1 iterations

     Forces acting on atoms (cartesian axes, Ry/au):

     atom    1 type  1   force =    -0.00137681    0.00617163    0.02215038
     atom    2 type  1   force =     0.00137681   -0.00617163   -0.02215038
     The non-local contrib.  to forces
     atom    1 type  1   force =     0.00062126   -0.02326913    0.06984734
     atom    2 type  1   force =    -0.00062277    0.02325431   -0.06984080
     The ionic contribution  to forces
     atom    1 type  1   force =     0.00878840   -0.04045357    0.45501617
     atom    2 type  1   force =    -0.00878840    0.04045357   -0.45501617
     The local contribution  to forces
     atom    1 type  1   force =    -0.01107831    0.07252775   -0.55826152
     atom    2 type  1   force =     0.01107433   -0.07251752    0.55825861
     The core correction contribution to forces
     atom    1 type  1   force =     0.00000000    0.00000000    0.00000000
     atom    2 type  1   force =     0.00000000    0.00000000    0.00000000
     The Hubbard contrib.    to forces
     atom    1 type  1   force =     0.00000000    0.00000000    0.00000000
     atom    2 type  1   force =     0.00000000    0.00000000    0.00000000
     The SCF correction term to forces
     atom    1 type  1   force =     0.00028917   -0.00263588    0.05555018
     atom    2 type  1   force =    -0.00028900    0.00263555   -0.05555022

     Total force =     0.032577     Total SCF correction =     0.078649
     SCF correction compared to forces is large: reduce conv_thr to get better values


     Computing stress (Cartesian axis) and pressure

          total   stress  (Ry/bohr**3)                   (kbar)     P=      -28.13
  -0.00034467  -0.00009728   0.00002699          -50.70      -14.31        3.97
  -0.00009728  -0.00060411  -0.00003664          -14.31      -88.87       -5.39
   0.00002699  -0.00003664   0.00037504            3.97       -5.39       55.17

     kinetic stress (kbar)   3185.40    -24.30      3.35
                              -24.30   3128.74     -3.79
                                3.35     -3.79   3297.78

     local   stress (kbar)   -856.78    -88.11     -9.53
                              -88.11  -1078.76     49.55
                               -9.53     49.55   -554.49

     nonloc. stress (kbar)   3771.46      0.39      2.74
                                0.39   3776.08    -16.08
                                2.74    -16.08   3771.58

     hartree stress (kbar)     51.53      7.26      0.00
                                7.26     69.06      0.01
                                0.00      0.01    -28.63

     exc-cor stress (kbar)  -1133.12      0.00      0.00
                                0.00  -1133.12      0.00
                                0.00      0.00  -1133.12

     corecor stress (kbar)      0.00      0.00      0.00
                                0.00      0.00      0.00
                                0.00      0.00      0.00

     ewald   stress (kbar)  -5069.19     90.45      7.42
                               90.45  -4850.88    -35.08
                                7.42    -35.08  -5297.95

     hubbard stress (kbar)      0.00      0.00      0.00
                                0.00      0.00      0.00
                                0.00      0.00      0.00

     DFT-D   stress (kbar)      0.00      0.00      0.00
                                0.00      0.00      0.00
                                0.00      0.00      0.00

     XDM     stress (kbar)      0.00      0.00      0.00
                                0.00      0.00      0.00
                                0.00      0.00      0.00

     dft-nl  stress (kbar)      0.00      0.00      0.00
                                0.00      0.00      0.00
                                0.00      0.00      0.00

     TS-vdW  stress (kbar)      0.00      0.00      0.00
                                0.00      0.00      0.00
                                0.00      0.00      0.00

     MDB     stress (kbar)      0.00      0.00      0.00
                                0.00      0.00      0.00
                                0.00      0.00      0.00

     3D-RISM stress (kbar)      0.00      0.00      0.00
                                0.00      0.00      0.00
                                0.00      0.00      0.00


     Writing all to output data dir ../tmp/Si/Si.save/ :
     XML data file, charge density, pseudopotentials, collected wavefunctions

     init_run     :      2.57s CPU      2.65s WALL (       1 calls)
     electrons    :     15.42s CPU     15.77s WALL (       1 calls)
     forces       :      0.16s CPU      0.17s WALL (       1 calls)
     stress       :      1.86s CPU      1.87s WALL (       1 calls)

     Called by init_run:
     wfcinit      :      2.24s CPU      2.31s WALL (       1 calls)
     wfcinit:atom :      0.06s CPU      0.06s WALL (     512 calls)
     wfcinit:wfcr :      1.87s CPU      1.93s WALL (     512 calls)
     potinit      :      0.01s CPU      0.01s WALL (       1 calls)
     hinit0       :      0.26s CPU      0.26s WALL (       1 calls)

     Called by electrons:
     c_bands      :     13.38s CPU     13.69s WALL (       2 calls)
     sum_band     :      2.03s CPU      2.07s WALL (       2 calls)
     v_of_rho     :      0.00s CPU      0.00s WALL (       2 calls)
     v_h          :      0.00s CPU      0.00s WALL (       2 calls)
     v_xc         :      0.00s CPU      0.00s WALL (       2 calls)
     mix_rho      :      0.00s CPU      0.00s WALL (       2 calls)

     Called by c_bands:
     init_us_2    :      0.53s CPU      0.54s WALL (    3584 calls)
     cegterg      :     13.08s CPU     13.38s WALL (    1024 calls)

     Called by sum_band:
     sum_band:wei :      0.00s CPU      0.00s WALL (       2 calls)
     sum_band:loo :      2.02s CPU      2.06s WALL (       2 calls)
     sum_band:buf :      0.02s CPU      0.02s WALL (    1024 calls)
     sum_band:ini :      0.17s CPU      0.18s WALL (    1024 calls)

     Called by *egterg:
     cdiaghg      :      0.59s CPU      0.62s WALL (    4369 calls)
     cegterg:over :      0.28s CPU      0.29s WALL (    3857 calls)
     cegterg:upda :      0.22s CPU      0.22s WALL (    3857 calls)
     cegterg:last :      0.25s CPU      0.26s WALL (    3006 calls)
     h_psi        :     13.30s CPU     13.60s WALL (    5393 calls)
     g_psi        :      0.09s CPU      0.09s WALL (    3857 calls)

     Called by h_psi:
     h_psi:calbec :      0.23s CPU      0.23s WALL (    5393 calls)
     vloc_psi     :     12.78s CPU     13.07s WALL (    5393 calls)
     add_vuspsi   :      0.17s CPU      0.17s WALL (    5393 calls)

     General routines
     calbec       :      0.30s CPU      0.30s WALL (    7953 calls)
     fft          :      0.23s CPU      0.24s WALL (      11 calls)
     ffts         :      0.00s CPU      0.00s WALL (       2 calls)
     fftw         :     12.62s CPU     12.91s WALL (   71486 calls)


     PWSCF        :     20.10s CPU     20.63s WALL


   This run was terminated on:  15:26:18   7May2024            

=------------------------------------------------------------------------------=
   JOB DONE.
=------------------------------------------------------------------------------=
