
     Program PWSCF v.7.3.1 starts on  7May2024 at 15:22:14 

     This program is part of the open-source Quantum ESPRESSO suite
     for quantum simulation of materials; please cite
         "P. Giannozzi et al., J. Phys.:Condens. Matter 21 395502 (2009);
         "P. Giannozzi et al., J. Phys.:Condens. Matter 29 465901 (2017);
         "P. Giannozzi et al., J. Chem. Phys. 152 154105 (2020);
          URL http://www.quantum-espresso.org", 
     in publications or presentations arising from this work. More details at
     http://www.quantum-espresso.org/quote

     Serial version
     5808 MiB available memory on the printing compute node when the environment starts

     Reading input from Si4.pw.in

     Current dimensions of program PWSCF are:
     Max number of different atomic species (ntypx) = 10
     Max number of k-points (npk) =  40000
     Max angular momentum in pseudopotentials (lmaxx) =  4


     G-vector sticks info
     --------------------
     sticks:   dense  smooth     PW     G-vecs:    dense   smooth      PW
     Sum         283     283    109                 6629     6629    1449

     Using Slab Decomposition



     bravais-lattice index     =            0
     lattice parameter (alat)  =       5.0781  a.u.
     unit-cell volume          =     193.8226 (a.u.)^3
     number of atoms/cell      =            2
     number of atomic types    =            1
     number of electrons       =         8.00
     number of Kohn-Sham states=            8
     kinetic-energy cutoff     =      40.0000  Ry
     charge density cutoff     =     160.0000  Ry
     scf convergence threshold =      2.0E-02
     mixing beta               =       0.1000
     number of iterations used =            8  plain     mixing
     Exchange-correlation=  SLA  PZ   NOGX NOGC
                           (   1   1   0   0   0   0   0)

     celldm(1)=   5.078053  celldm(2)=   0.000000  celldm(3)=   0.000000
     celldm(4)=   0.000000  celldm(5)=   0.000000  celldm(6)=   0.000000

     crystal axes: (cart. coord. in units of alat)
               a(1) = (   1.000000   0.000000   0.000000 )  
               a(2) = (  -0.500000   0.866025   0.000000 )  
               a(3) = (   0.000000   0.000000   1.709157 )  

     reciprocal axes: (cart. coord. in units 2 pi/alat)
               b(1) = (  1.000000  0.577350 -0.000000 )  
               b(2) = (  0.000000  1.154701  0.000000 )  
               b(3) = (  0.000000 -0.000000  0.585084 )  


     PseudoPot. # 1 for Si read from file:
     ../pseudo/Si.pz-vbc.UPF
     MD5 check sum: 6dfa03ddd5817404712e03e4d12deb78
     Pseudo is Norm-conserving, Zval =  4.0
     Generated by new atomic code, or converted to UPF format
     Using radial grid of  431 points,  2 beta functions with: 
                l(1) =   0
                l(2) =   1

     atomic species   valence    mass     pseudopotential
     Si                4.00    28.08600     Si( 1.00)

     No symmetry found


                                    s                        frac. trans.

      isym =  1     identity                                     

 cryst.   s( 1) = (     1          0          0      )
                  (     0          1          0      )
                  (     0          0          1      )

 cart.    s( 1) = (  1.0000000  0.0000000  0.0000000 )
                  (  0.0000000  1.0000000  0.0000000 )
                  (  0.0000000  0.0000000  1.0000000 )


   Cartesian axes

     site n.     atom                  positions (alat units)
         1        Si     tau(   1) = (  -0.0259693   0.6092931   0.5949608  )
         2        Si     tau(   2) = (   0.4628574   0.2394055   1.3552720  )

   Crystallographic axes

     site n.     atom                  positions (cryst. coord.)
         1        Si     tau(   1) = (  0.3258063  0.7035511  0.3481018  )
         2        Si     tau(   2) = (  0.6010782  0.2764416  0.7929474  )

     number of k points=   512  Fermi-Dirac smearing, width (Ry)=  0.0019
                       cart. coord. in units 2pi/alat
        k(    1) = (   0.0000000   0.0000000   0.0000000), wk =   0.0039062
        k(    2) = (   0.0000000   0.0000000   0.0731354), wk =   0.0039062
        k(    3) = (   0.0000000   0.0000000   0.1462709), wk =   0.0039062
        k(    4) = (   0.0000000   0.0000000   0.2194063), wk =   0.0039062
        k(    5) = (   0.0000000   0.0000000  -0.2925418), wk =   0.0039062
        k(    6) = (   0.0000000   0.0000000  -0.2194063), wk =   0.0039062
        k(    7) = (   0.0000000   0.0000000  -0.1462709), wk =   0.0039062
        k(    8) = (   0.0000000   0.0000000  -0.0731354), wk =   0.0039062
        k(    9) = (   0.0000000   0.1443376   0.0000000), wk =   0.0039062
        k(   10) = (   0.0000000   0.1443376   0.0731354), wk =   0.0039062
        k(   11) = (   0.0000000   0.1443376   0.1462709), wk =   0.0039062
        k(   12) = (   0.0000000   0.1443376   0.2194063), wk =   0.0039062
        k(   13) = (   0.0000000   0.1443376  -0.2925418), wk =   0.0039062
        k(   14) = (   0.0000000   0.1443376  -0.2194063), wk =   0.0039062
        k(   15) = (   0.0000000   0.1443376  -0.1462709), wk =   0.0039062
        k(   16) = (   0.0000000   0.1443376  -0.0731354), wk =   0.0039062
        k(   17) = (   0.0000000   0.2886751   0.0000000), wk =   0.0039062
        k(   18) = (   0.0000000   0.2886751   0.0731354), wk =   0.0039062
        k(   19) = (   0.0000000   0.2886751   0.1462709), wk =   0.0039062
        k(   20) = (   0.0000000   0.2886751   0.2194063), wk =   0.0039062
        k(   21) = (   0.0000000   0.2886751  -0.2925418), wk =   0.0039062
        k(   22) = (   0.0000000   0.2886751  -0.2194063), wk =   0.0039062
        k(   23) = (   0.0000000   0.2886751  -0.1462709), wk =   0.0039062
        k(   24) = (   0.0000000   0.2886751  -0.0731354), wk =   0.0039062
        k(   25) = (   0.0000000   0.4330127   0.0000000), wk =   0.0039062
        k(   26) = (   0.0000000   0.4330127   0.0731354), wk =   0.0039062
        k(   27) = (   0.0000000   0.4330127   0.1462709), wk =   0.0039062
        k(   28) = (   0.0000000   0.4330127   0.2194063), wk =   0.0039062
        k(   29) = (   0.0000000   0.4330127  -0.2925418), wk =   0.0039062
        k(   30) = (   0.0000000   0.4330127  -0.2194063), wk =   0.0039062
        k(   31) = (   0.0000000   0.4330127  -0.1462709), wk =   0.0039062
        k(   32) = (   0.0000000   0.4330127  -0.0731354), wk =   0.0039062
        k(   33) = (   0.0000000  -0.5773503   0.0000000), wk =   0.0039062
        k(   34) = (   0.0000000  -0.5773503   0.0731354), wk =   0.0039062
        k(   35) = (   0.0000000  -0.5773503   0.1462709), wk =   0.0039062
        k(   36) = (   0.0000000  -0.5773503   0.2194063), wk =   0.0039062
        k(   37) = (   0.0000000  -0.5773503  -0.2925418), wk =   0.0039062
        k(   38) = (   0.0000000  -0.5773503  -0.2194063), wk =   0.0039062
        k(   39) = (   0.0000000  -0.5773503  -0.1462709), wk =   0.0039062
        k(   40) = (   0.0000000  -0.5773503  -0.0731354), wk =   0.0039062
        k(   41) = (   0.0000000  -0.4330127   0.0000000), wk =   0.0039062
        k(   42) = (   0.0000000  -0.4330127   0.0731354), wk =   0.0039062
        k(   43) = (   0.0000000  -0.4330127   0.1462709), wk =   0.0039062
        k(   44) = (   0.0000000  -0.4330127   0.2194063), wk =   0.0039062
        k(   45) = (   0.0000000  -0.4330127  -0.2925418), wk =   0.0039062
        k(   46) = (   0.0000000  -0.4330127  -0.2194063), wk =   0.0039062
        k(   47) = (   0.0000000  -0.4330127  -0.1462709), wk =   0.0039062
        k(   48) = (   0.0000000  -0.4330127  -0.0731354), wk =   0.0039062
        k(   49) = (   0.0000000  -0.2886751   0.0000000), wk =   0.0039062
        k(   50) = (   0.0000000  -0.2886751   0.0731354), wk =   0.0039062
        k(   51) = (   0.0000000  -0.2886751   0.1462709), wk =   0.0039062
        k(   52) = (   0.0000000  -0.2886751   0.2194063), wk =   0.0039062
        k(   53) = (   0.0000000  -0.2886751  -0.2925418), wk =   0.0039062
        k(   54) = (   0.0000000  -0.2886751  -0.2194063), wk =   0.0039062
        k(   55) = (   0.0000000  -0.2886751  -0.1462709), wk =   0.0039062
        k(   56) = (   0.0000000  -0.2886751  -0.0731354), wk =   0.0039062
        k(   57) = (   0.0000000  -0.1443376   0.0000000), wk =   0.0039062
        k(   58) = (   0.0000000  -0.1443376   0.0731354), wk =   0.0039062
        k(   59) = (   0.0000000  -0.1443376   0.1462709), wk =   0.0039062
        k(   60) = (   0.0000000  -0.1443376   0.2194063), wk =   0.0039062
        k(   61) = (   0.0000000  -0.1443376  -0.2925418), wk =   0.0039062
        k(   62) = (   0.0000000  -0.1443376  -0.2194063), wk =   0.0039062
        k(   63) = (   0.0000000  -0.1443376  -0.1462709), wk =   0.0039062
        k(   64) = (   0.0000000  -0.1443376  -0.0731354), wk =   0.0039062
        k(   65) = (   0.1250000   0.0721688   0.0000000), wk =   0.0039062
        k(   66) = (   0.1250000   0.0721688   0.0731354), wk =   0.0039062
        k(   67) = (   0.1250000   0.0721688   0.1462709), wk =   0.0039062
        k(   68) = (   0.1250000   0.0721688   0.2194063), wk =   0.0039062
        k(   69) = (   0.1250000   0.0721688  -0.2925418), wk =   0.0039062
        k(   70) = (   0.1250000   0.0721688  -0.2194063), wk =   0.0039062
        k(   71) = (   0.1250000   0.0721688  -0.1462709), wk =   0.0039062
        k(   72) = (   0.1250000   0.0721688  -0.0731354), wk =   0.0039062
        k(   73) = (   0.1250000   0.2165064   0.0000000), wk =   0.0039062
        k(   74) = (   0.1250000   0.2165064   0.0731354), wk =   0.0039062
        k(   75) = (   0.1250000   0.2165064   0.1462709), wk =   0.0039062
        k(   76) = (   0.1250000   0.2165064   0.2194063), wk =   0.0039062
        k(   77) = (   0.1250000   0.2165064  -0.2925418), wk =   0.0039062
        k(   78) = (   0.1250000   0.2165064  -0.2194063), wk =   0.0039062
        k(   79) = (   0.1250000   0.2165064  -0.1462709), wk =   0.0039062
        k(   80) = (   0.1250000   0.2165064  -0.0731354), wk =   0.0039062
        k(   81) = (   0.1250000   0.3608439   0.0000000), wk =   0.0039062
        k(   82) = (   0.1250000   0.3608439   0.0731354), wk =   0.0039062
        k(   83) = (   0.1250000   0.3608439   0.1462709), wk =   0.0039062
        k(   84) = (   0.1250000   0.3608439   0.2194063), wk =   0.0039062
        k(   85) = (   0.1250000   0.3608439  -0.2925418), wk =   0.0039062
        k(   86) = (   0.1250000   0.3608439  -0.2194063), wk =   0.0039062
        k(   87) = (   0.1250000   0.3608439  -0.1462709), wk =   0.0039062
        k(   88) = (   0.1250000   0.3608439  -0.0731354), wk =   0.0039062
        k(   89) = (   0.1250000   0.5051815   0.0000000), wk =   0.0039062
        k(   90) = (   0.1250000   0.5051815   0.0731354), wk =   0.0039062
        k(   91) = (   0.1250000   0.5051815   0.1462709), wk =   0.0039062
        k(   92) = (   0.1250000   0.5051815   0.2194063), wk =   0.0039062
        k(   93) = (   0.1250000   0.5051815  -0.2925418), wk =   0.0039062
        k(   94) = (   0.1250000   0.5051815  -0.2194063), wk =   0.0039062
        k(   95) = (   0.1250000   0.5051815  -0.1462709), wk =   0.0039062
        k(   96) = (   0.1250000   0.5051815  -0.0731354), wk =   0.0039062
        k(   97) = (   0.1250000  -0.5051815   0.0000000), wk =   0.0039062
        k(   98) = (   0.1250000  -0.5051815   0.0731354), wk =   0.0039062
        k(   99) = (   0.1250000  -0.5051815   0.1462709), wk =   0.0039062
        k(  100) = (   0.1250000  -0.5051815   0.2194063), wk =   0.0039062
        k(  101) = (   0.1250000  -0.5051815  -0.2925418), wk =   0.0039062
        k(  102) = (   0.1250000  -0.5051815  -0.2194063), wk =   0.0039062
        k(  103) = (   0.1250000  -0.5051815  -0.1462709), wk =   0.0039062
        k(  104) = (   0.1250000  -0.5051815  -0.0731354), wk =   0.0039062
        k(  105) = (   0.1250000  -0.3608439   0.0000000), wk =   0.0039062
        k(  106) = (   0.1250000  -0.3608439   0.0731354), wk =   0.0039062
        k(  107) = (   0.1250000  -0.3608439   0.1462709), wk =   0.0039062
        k(  108) = (   0.1250000  -0.3608439   0.2194063), wk =   0.0039062
        k(  109) = (   0.1250000  -0.3608439  -0.2925418), wk =   0.0039062
        k(  110) = (   0.1250000  -0.3608439  -0.2194063), wk =   0.0039062
        k(  111) = (   0.1250000  -0.3608439  -0.1462709), wk =   0.0039062
        k(  112) = (   0.1250000  -0.3608439  -0.0731354), wk =   0.0039062
        k(  113) = (   0.1250000  -0.2165064   0.0000000), wk =   0.0039062
        k(  114) = (   0.1250000  -0.2165064   0.0731354), wk =   0.0039062
        k(  115) = (   0.1250000  -0.2165064   0.1462709), wk =   0.0039062
        k(  116) = (   0.1250000  -0.2165064   0.2194063), wk =   0.0039062
        k(  117) = (   0.1250000  -0.2165064  -0.2925418), wk =   0.0039062
        k(  118) = (   0.1250000  -0.2165064  -0.2194063), wk =   0.0039062
        k(  119) = (   0.1250000  -0.2165064  -0.1462709), wk =   0.0039062
        k(  120) = (   0.1250000  -0.2165064  -0.0731354), wk =   0.0039062
        k(  121) = (   0.1250000  -0.0721688   0.0000000), wk =   0.0039062
        k(  122) = (   0.1250000  -0.0721688   0.0731354), wk =   0.0039062
        k(  123) = (   0.1250000  -0.0721688   0.1462709), wk =   0.0039062
        k(  124) = (   0.1250000  -0.0721688   0.2194063), wk =   0.0039062
        k(  125) = (   0.1250000  -0.0721688  -0.2925418), wk =   0.0039062
        k(  126) = (   0.1250000  -0.0721688  -0.2194063), wk =   0.0039062
        k(  127) = (   0.1250000  -0.0721688  -0.1462709), wk =   0.0039062
        k(  128) = (   0.1250000  -0.0721688  -0.0731354), wk =   0.0039062
        k(  129) = (   0.2500000   0.1443376   0.0000000), wk =   0.0039062
        k(  130) = (   0.2500000   0.1443376   0.0731354), wk =   0.0039062
        k(  131) = (   0.2500000   0.1443376   0.1462709), wk =   0.0039062
        k(  132) = (   0.2500000   0.1443376   0.2194063), wk =   0.0039062
        k(  133) = (   0.2500000   0.1443376  -0.2925418), wk =   0.0039062
        k(  134) = (   0.2500000   0.1443376  -0.2194063), wk =   0.0039062
        k(  135) = (   0.2500000   0.1443376  -0.1462709), wk =   0.0039062
        k(  136) = (   0.2500000   0.1443376  -0.0731354), wk =   0.0039062
        k(  137) = (   0.2500000   0.2886751   0.0000000), wk =   0.0039062
        k(  138) = (   0.2500000   0.2886751   0.0731354), wk =   0.0039062
        k(  139) = (   0.2500000   0.2886751   0.1462709), wk =   0.0039062
        k(  140) = (   0.2500000   0.2886751   0.2194063), wk =   0.0039062
        k(  141) = (   0.2500000   0.2886751  -0.2925418), wk =   0.0039062
        k(  142) = (   0.2500000   0.2886751  -0.2194063), wk =   0.0039062
        k(  143) = (   0.2500000   0.2886751  -0.1462709), wk =   0.0039062
        k(  144) = (   0.2500000   0.2886751  -0.0731354), wk =   0.0039062
        k(  145) = (   0.2500000   0.4330127   0.0000000), wk =   0.0039062
        k(  146) = (   0.2500000   0.4330127   0.0731354), wk =   0.0039062
        k(  147) = (   0.2500000   0.4330127   0.1462709), wk =   0.0039062
        k(  148) = (   0.2500000   0.4330127   0.2194063), wk =   0.0039062
        k(  149) = (   0.2500000   0.4330127  -0.2925418), wk =   0.0039062
        k(  150) = (   0.2500000   0.4330127  -0.2194063), wk =   0.0039062
        k(  151) = (   0.2500000   0.4330127  -0.1462709), wk =   0.0039062
        k(  152) = (   0.2500000   0.4330127  -0.0731354), wk =   0.0039062
        k(  153) = (   0.2500000   0.5773503   0.0000000), wk =   0.0039062
        k(  154) = (   0.2500000   0.5773503   0.0731354), wk =   0.0039062
        k(  155) = (   0.2500000   0.5773503   0.1462709), wk =   0.0039062
        k(  156) = (   0.2500000   0.5773503   0.2194063), wk =   0.0039062
        k(  157) = (   0.2500000   0.5773503  -0.2925418), wk =   0.0039062
        k(  158) = (   0.2500000   0.5773503  -0.2194063), wk =   0.0039062
        k(  159) = (   0.2500000   0.5773503  -0.1462709), wk =   0.0039062
        k(  160) = (   0.2500000   0.5773503  -0.0731354), wk =   0.0039062
        k(  161) = (   0.2500000  -0.4330127   0.0000000), wk =   0.0039062
        k(  162) = (   0.2500000  -0.4330127   0.0731354), wk =   0.0039062
        k(  163) = (   0.2500000  -0.4330127   0.1462709), wk =   0.0039062
        k(  164) = (   0.2500000  -0.4330127   0.2194063), wk =   0.0039062
        k(  165) = (   0.2500000  -0.4330127  -0.2925418), wk =   0.0039062
        k(  166) = (   0.2500000  -0.4330127  -0.2194063), wk =   0.0039062
        k(  167) = (   0.2500000  -0.4330127  -0.1462709), wk =   0.0039062
        k(  168) = (   0.2500000  -0.4330127  -0.0731354), wk =   0.0039062
        k(  169) = (   0.2500000  -0.2886751   0.0000000), wk =   0.0039062
        k(  170) = (   0.2500000  -0.2886751   0.0731354), wk =   0.0039062
        k(  171) = (   0.2500000  -0.2886751   0.1462709), wk =   0.0039062
        k(  172) = (   0.2500000  -0.2886751   0.2194063), wk =   0.0039062
        k(  173) = (   0.2500000  -0.2886751  -0.2925418), wk =   0.0039062
        k(  174) = (   0.2500000  -0.2886751  -0.2194063), wk =   0.0039062
        k(  175) = (   0.2500000  -0.2886751  -0.1462709), wk =   0.0039062
        k(  176) = (   0.2500000  -0.2886751  -0.0731354), wk =   0.0039062
        k(  177) = (   0.2500000  -0.1443376   0.0000000), wk =   0.0039062
        k(  178) = (   0.2500000  -0.1443376   0.0731354), wk =   0.0039062
        k(  179) = (   0.2500000  -0.1443376   0.1462709), wk =   0.0039062
        k(  180) = (   0.2500000  -0.1443376   0.2194063), wk =   0.0039062
        k(  181) = (   0.2500000  -0.1443376  -0.2925418), wk =   0.0039062
        k(  182) = (   0.2500000  -0.1443376  -0.2194063), wk =   0.0039062
        k(  183) = (   0.2500000  -0.1443376  -0.1462709), wk =   0.0039062
        k(  184) = (   0.2500000  -0.1443376  -0.0731354), wk =   0.0039062
        k(  185) = (   0.2500000   0.0000000   0.0000000), wk =   0.0039062
        k(  186) = (   0.2500000   0.0000000   0.0731354), wk =   0.0039062
        k(  187) = (   0.2500000   0.0000000   0.1462709), wk =   0.0039062
        k(  188) = (   0.2500000   0.0000000   0.2194063), wk =   0.0039062
        k(  189) = (   0.2500000   0.0000000  -0.2925418), wk =   0.0039062
        k(  190) = (   0.2500000   0.0000000  -0.2194063), wk =   0.0039062
        k(  191) = (   0.2500000   0.0000000  -0.1462709), wk =   0.0039062
        k(  192) = (   0.2500000   0.0000000  -0.0731354), wk =   0.0039062
        k(  193) = (   0.3750000   0.2165064   0.0000000), wk =   0.0039062
        k(  194) = (   0.3750000   0.2165064   0.0731354), wk =   0.0039062
        k(  195) = (   0.3750000   0.2165064   0.1462709), wk =   0.0039062
        k(  196) = (   0.3750000   0.2165064   0.2194063), wk =   0.0039062
        k(  197) = (   0.3750000   0.2165064  -0.2925418), wk =   0.0039062
        k(  198) = (   0.3750000   0.2165064  -0.2194063), wk =   0.0039062
        k(  199) = (   0.3750000   0.2165064  -0.1462709), wk =   0.0039062
        k(  200) = (   0.3750000   0.2165064  -0.0731354), wk =   0.0039062
        k(  201) = (   0.3750000   0.3608439   0.0000000), wk =   0.0039062
        k(  202) = (   0.3750000   0.3608439   0.0731354), wk =   0.0039062
        k(  203) = (   0.3750000   0.3608439   0.1462709), wk =   0.0039062
        k(  204) = (   0.3750000   0.3608439   0.2194063), wk =   0.0039062
        k(  205) = (   0.3750000   0.3608439  -0.2925418), wk =   0.0039062
        k(  206) = (   0.3750000   0.3608439  -0.2194063), wk =   0.0039062
        k(  207) = (   0.3750000   0.3608439  -0.1462709), wk =   0.0039062
        k(  208) = (   0.3750000   0.3608439  -0.0731354), wk =   0.0039062
        k(  209) = (   0.3750000   0.5051815   0.0000000), wk =   0.0039062
        k(  210) = (   0.3750000   0.5051815   0.0731354), wk =   0.0039062
        k(  211) = (   0.3750000   0.5051815   0.1462709), wk =   0.0039062
        k(  212) = (   0.3750000   0.5051815   0.2194063), wk =   0.0039062
        k(  213) = (   0.3750000   0.5051815  -0.2925418), wk =   0.0039062
        k(  214) = (   0.3750000   0.5051815  -0.2194063), wk =   0.0039062
        k(  215) = (   0.3750000   0.5051815  -0.1462709), wk =   0.0039062
        k(  216) = (   0.3750000   0.5051815  -0.0731354), wk =   0.0039062
        k(  217) = (   0.3750000   0.6495191   0.0000000), wk =   0.0039062
        k(  218) = (   0.3750000   0.6495191   0.0731354), wk =   0.0039062
        k(  219) = (   0.3750000   0.6495191   0.1462709), wk =   0.0039062
        k(  220) = (   0.3750000   0.6495191   0.2194063), wk =   0.0039062
        k(  221) = (   0.3750000   0.6495191  -0.2925418), wk =   0.0039062
        k(  222) = (   0.3750000   0.6495191  -0.2194063), wk =   0.0039062
        k(  223) = (   0.3750000   0.6495191  -0.1462709), wk =   0.0039062
        k(  224) = (   0.3750000   0.6495191  -0.0731354), wk =   0.0039062
        k(  225) = (   0.3750000  -0.3608439   0.0000000), wk =   0.0039062
        k(  226) = (   0.3750000  -0.3608439   0.0731354), wk =   0.0039062
        k(  227) = (   0.3750000  -0.3608439   0.1462709), wk =   0.0039062
        k(  228) = (   0.3750000  -0.3608439   0.2194063), wk =   0.0039062
        k(  229) = (   0.3750000  -0.3608439  -0.2925418), wk =   0.0039062
        k(  230) = (   0.3750000  -0.3608439  -0.2194063), wk =   0.0039062
        k(  231) = (   0.3750000  -0.3608439  -0.1462709), wk =   0.0039062
        k(  232) = (   0.3750000  -0.3608439  -0.0731354), wk =   0.0039062
        k(  233) = (   0.3750000  -0.2165064   0.0000000), wk =   0.0039062
        k(  234) = (   0.3750000  -0.2165064   0.0731354), wk =   0.0039062
        k(  235) = (   0.3750000  -0.2165064   0.1462709), wk =   0.0039062
        k(  236) = (   0.3750000  -0.2165064   0.2194063), wk =   0.0039062
        k(  237) = (   0.3750000  -0.2165064  -0.2925418), wk =   0.0039062
        k(  238) = (   0.3750000  -0.2165064  -0.2194063), wk =   0.0039062
        k(  239) = (   0.3750000  -0.2165064  -0.1462709), wk =   0.0039062
        k(  240) = (   0.3750000  -0.2165064  -0.0731354), wk =   0.0039062
        k(  241) = (   0.3750000  -0.0721688   0.0000000), wk =   0.0039062
        k(  242) = (   0.3750000  -0.0721688   0.0731354), wk =   0.0039062
        k(  243) = (   0.3750000  -0.0721688   0.1462709), wk =   0.0039062
        k(  244) = (   0.3750000  -0.0721688   0.2194063), wk =   0.0039062
        k(  245) = (   0.3750000  -0.0721688  -0.2925418), wk =   0.0039062
        k(  246) = (   0.3750000  -0.0721688  -0.2194063), wk =   0.0039062
        k(  247) = (   0.3750000  -0.0721688  -0.1462709), wk =   0.0039062
        k(  248) = (   0.3750000  -0.0721688  -0.0731354), wk =   0.0039062
        k(  249) = (   0.3750000   0.0721688   0.0000000), wk =   0.0039062
        k(  250) = (   0.3750000   0.0721688   0.0731354), wk =   0.0039062
        k(  251) = (   0.3750000   0.0721688   0.1462709), wk =   0.0039062
        k(  252) = (   0.3750000   0.0721688   0.2194063), wk =   0.0039062
        k(  253) = (   0.3750000   0.0721688  -0.2925418), wk =   0.0039062
        k(  254) = (   0.3750000   0.0721688  -0.2194063), wk =   0.0039062
        k(  255) = (   0.3750000   0.0721688  -0.1462709), wk =   0.0039062
        k(  256) = (   0.3750000   0.0721688  -0.0731354), wk =   0.0039062
        k(  257) = (  -0.5000000  -0.2886751   0.0000000), wk =   0.0039062
        k(  258) = (  -0.5000000  -0.2886751   0.0731354), wk =   0.0039062
        k(  259) = (  -0.5000000  -0.2886751   0.1462709), wk =   0.0039062
        k(  260) = (  -0.5000000  -0.2886751   0.2194063), wk =   0.0039062
        k(  261) = (  -0.5000000  -0.2886751  -0.2925418), wk =   0.0039062
        k(  262) = (  -0.5000000  -0.2886751  -0.2194063), wk =   0.0039062
        k(  263) = (  -0.5000000  -0.2886751  -0.1462709), wk =   0.0039062
        k(  264) = (  -0.5000000  -0.2886751  -0.0731354), wk =   0.0039062
        k(  265) = (  -0.5000000  -0.1443376   0.0000000), wk =   0.0039062
        k(  266) = (  -0.5000000  -0.1443376   0.0731354), wk =   0.0039062
        k(  267) = (  -0.5000000  -0.1443376   0.1462709), wk =   0.0039062
        k(  268) = (  -0.5000000  -0.1443376   0.2194063), wk =   0.0039062
        k(  269) = (  -0.5000000  -0.1443376  -0.2925418), wk =   0.0039062
        k(  270) = (  -0.5000000  -0.1443376  -0.2194063), wk =   0.0039062
        k(  271) = (  -0.5000000  -0.1443376  -0.1462709), wk =   0.0039062
        k(  272) = (  -0.5000000  -0.1443376  -0.0731354), wk =   0.0039062
        k(  273) = (  -0.5000000  -0.0000000   0.0000000), wk =   0.0039062
        k(  274) = (  -0.5000000  -0.0000000   0.0731354), wk =   0.0039062
        k(  275) = (  -0.5000000  -0.0000000   0.1462709), wk =   0.0039062
        k(  276) = (  -0.5000000  -0.0000000   0.2194063), wk =   0.0039062
        k(  277) = (  -0.5000000  -0.0000000  -0.2925418), wk =   0.0039062
        k(  278) = (  -0.5000000  -0.0000000  -0.2194063), wk =   0.0039062
        k(  279) = (  -0.5000000  -0.0000000  -0.1462709), wk =   0.0039062
        k(  280) = (  -0.5000000  -0.0000000  -0.0731354), wk =   0.0039062
        k(  281) = (  -0.5000000   0.1443376   0.0000000), wk =   0.0039062
        k(  282) = (  -0.5000000   0.1443376   0.0731354), wk =   0.0039062
        k(  283) = (  -0.5000000   0.1443376   0.1462709), wk =   0.0039062
        k(  284) = (  -0.5000000   0.1443376   0.2194063), wk =   0.0039062
        k(  285) = (  -0.5000000   0.1443376  -0.2925418), wk =   0.0039062
        k(  286) = (  -0.5000000   0.1443376  -0.2194063), wk =   0.0039062
        k(  287) = (  -0.5000000   0.1443376  -0.1462709), wk =   0.0039062
        k(  288) = (  -0.5000000   0.1443376  -0.0731354), wk =   0.0039062
        k(  289) = (  -0.5000000  -0.8660254   0.0000000), wk =   0.0039062
        k(  290) = (  -0.5000000  -0.8660254   0.0731354), wk =   0.0039062
        k(  291) = (  -0.5000000  -0.8660254   0.1462709), wk =   0.0039062
        k(  292) = (  -0.5000000  -0.8660254   0.2194063), wk =   0.0039062
        k(  293) = (  -0.5000000  -0.8660254  -0.2925418), wk =   0.0039062
        k(  294) = (  -0.5000000  -0.8660254  -0.2194063), wk =   0.0039062
        k(  295) = (  -0.5000000  -0.8660254  -0.1462709), wk =   0.0039062
        k(  296) = (  -0.5000000  -0.8660254  -0.0731354), wk =   0.0039062
        k(  297) = (  -0.5000000  -0.7216878   0.0000000), wk =   0.0039062
        k(  298) = (  -0.5000000  -0.7216878   0.0731354), wk =   0.0039062
        k(  299) = (  -0.5000000  -0.7216878   0.1462709), wk =   0.0039062
        k(  300) = (  -0.5000000  -0.7216878   0.2194063), wk =   0.0039062
        k(  301) = (  -0.5000000  -0.7216878  -0.2925418), wk =   0.0039062
        k(  302) = (  -0.5000000  -0.7216878  -0.2194063), wk =   0.0039062
        k(  303) = (  -0.5000000  -0.7216878  -0.1462709), wk =   0.0039062
        k(  304) = (  -0.5000000  -0.7216878  -0.0731354), wk =   0.0039062
        k(  305) = (  -0.5000000  -0.5773503   0.0000000), wk =   0.0039062
        k(  306) = (  -0.5000000  -0.5773503   0.0731354), wk =   0.0039062
        k(  307) = (  -0.5000000  -0.5773503   0.1462709), wk =   0.0039062
        k(  308) = (  -0.5000000  -0.5773503   0.2194063), wk =   0.0039062
        k(  309) = (  -0.5000000  -0.5773503  -0.2925418), wk =   0.0039062
        k(  310) = (  -0.5000000  -0.5773503  -0.2194063), wk =   0.0039062
        k(  311) = (  -0.5000000  -0.5773503  -0.1462709), wk =   0.0039062
        k(  312) = (  -0.5000000  -0.5773503  -0.0731354), wk =   0.0039062
        k(  313) = (  -0.5000000  -0.4330127   0.0000000), wk =   0.0039062
        k(  314) = (  -0.5000000  -0.4330127   0.0731354), wk =   0.0039062
        k(  315) = (  -0.5000000  -0.4330127   0.1462709), wk =   0.0039062
        k(  316) = (  -0.5000000  -0.4330127   0.2194063), wk =   0.0039062
        k(  317) = (  -0.5000000  -0.4330127  -0.2925418), wk =   0.0039062
        k(  318) = (  -0.5000000  -0.4330127  -0.2194063), wk =   0.0039062
        k(  319) = (  -0.5000000  -0.4330127  -0.1462709), wk =   0.0039062
        k(  320) = (  -0.5000000  -0.4330127  -0.0731354), wk =   0.0039062
        k(  321) = (  -0.3750000  -0.2165064   0.0000000), wk =   0.0039062
        k(  322) = (  -0.3750000  -0.2165064   0.0731354), wk =   0.0039062
        k(  323) = (  -0.3750000  -0.2165064   0.1462709), wk =   0.0039062
        k(  324) = (  -0.3750000  -0.2165064   0.2194063), wk =   0.0039062
        k(  325) = (  -0.3750000  -0.2165064  -0.2925418), wk =   0.0039062
        k(  326) = (  -0.3750000  -0.2165064  -0.2194063), wk =   0.0039062
        k(  327) = (  -0.3750000  -0.2165064  -0.1462709), wk =   0.0039062
        k(  328) = (  -0.3750000  -0.2165064  -0.0731354), wk =   0.0039062
        k(  329) = (  -0.3750000  -0.0721688   0.0000000), wk =   0.0039062
        k(  330) = (  -0.3750000  -0.0721688   0.0731354), wk =   0.0039062
        k(  331) = (  -0.3750000  -0.0721688   0.1462709), wk =   0.0039062
        k(  332) = (  -0.3750000  -0.0721688   0.2194063), wk =   0.0039062
        k(  333) = (  -0.3750000  -0.0721688  -0.2925418), wk =   0.0039062
        k(  334) = (  -0.3750000  -0.0721688  -0.2194063), wk =   0.0039062
        k(  335) = (  -0.3750000  -0.0721688  -0.1462709), wk =   0.0039062
        k(  336) = (  -0.3750000  -0.0721688  -0.0731354), wk =   0.0039062
        k(  337) = (  -0.3750000   0.0721688   0.0000000), wk =   0.0039062
        k(  338) = (  -0.3750000   0.0721688   0.0731354), wk =   0.0039062
        k(  339) = (  -0.3750000   0.0721688   0.1462709), wk =   0.0039062
        k(  340) = (  -0.3750000   0.0721688   0.2194063), wk =   0.0039062
        k(  341) = (  -0.3750000   0.0721688  -0.2925418), wk =   0.0039062
        k(  342) = (  -0.3750000   0.0721688  -0.2194063), wk =   0.0039062
        k(  343) = (  -0.3750000   0.0721688  -0.1462709), wk =   0.0039062
        k(  344) = (  -0.3750000   0.0721688  -0.0731354), wk =   0.0039062
        k(  345) = (  -0.3750000   0.2165064   0.0000000), wk =   0.0039062
        k(  346) = (  -0.3750000   0.2165064   0.0731354), wk =   0.0039062
        k(  347) = (  -0.3750000   0.2165064   0.1462709), wk =   0.0039062
        k(  348) = (  -0.3750000   0.2165064   0.2194063), wk =   0.0039062
        k(  349) = (  -0.3750000   0.2165064  -0.2925418), wk =   0.0039062
        k(  350) = (  -0.3750000   0.2165064  -0.2194063), wk =   0.0039062
        k(  351) = (  -0.3750000   0.2165064  -0.1462709), wk =   0.0039062
        k(  352) = (  -0.3750000   0.2165064  -0.0731354), wk =   0.0039062
        k(  353) = (  -0.3750000  -0.7938566   0.0000000), wk =   0.0039062
        k(  354) = (  -0.3750000  -0.7938566   0.0731354), wk =   0.0039062
        k(  355) = (  -0.3750000  -0.7938566   0.1462709), wk =   0.0039062
        k(  356) = (  -0.3750000  -0.7938566   0.2194063), wk =   0.0039062
        k(  357) = (  -0.3750000  -0.7938566  -0.2925418), wk =   0.0039062
        k(  358) = (  -0.3750000  -0.7938566  -0.2194063), wk =   0.0039062
        k(  359) = (  -0.3750000  -0.7938566  -0.1462709), wk =   0.0039062
        k(  360) = (  -0.3750000  -0.7938566  -0.0731354), wk =   0.0039062
        k(  361) = (  -0.3750000  -0.6495191   0.0000000), wk =   0.0039062
        k(  362) = (  -0.3750000  -0.6495191   0.0731354), wk =   0.0039062
        k(  363) = (  -0.3750000  -0.6495191   0.1462709), wk =   0.0039062
        k(  364) = (  -0.3750000  -0.6495191   0.2194063), wk =   0.0039062
        k(  365) = (  -0.3750000  -0.6495191  -0.2925418), wk =   0.0039062
        k(  366) = (  -0.3750000  -0.6495191  -0.2194063), wk =   0.0039062
        k(  367) = (  -0.3750000  -0.6495191  -0.1462709), wk =   0.0039062
        k(  368) = (  -0.3750000  -0.6495191  -0.0731354), wk =   0.0039062
        k(  369) = (  -0.3750000  -0.5051815   0.0000000), wk =   0.0039062
        k(  370) = (  -0.3750000  -0.5051815   0.0731354), wk =   0.0039062
        k(  371) = (  -0.3750000  -0.5051815   0.1462709), wk =   0.0039062
        k(  372) = (  -0.3750000  -0.5051815   0.2194063), wk =   0.0039062
        k(  373) = (  -0.3750000  -0.5051815  -0.2925418), wk =   0.0039062
        k(  374) = (  -0.3750000  -0.5051815  -0.2194063), wk =   0.0039062
        k(  375) = (  -0.3750000  -0.5051815  -0.1462709), wk =   0.0039062
        k(  376) = (  -0.3750000  -0.5051815  -0.0731354), wk =   0.0039062
        k(  377) = (  -0.3750000  -0.3608439   0.0000000), wk =   0.0039062
        k(  378) = (  -0.3750000  -0.3608439   0.0731354), wk =   0.0039062
        k(  379) = (  -0.3750000  -0.3608439   0.1462709), wk =   0.0039062
        k(  380) = (  -0.3750000  -0.3608439   0.2194063), wk =   0.0039062
        k(  381) = (  -0.3750000  -0.3608439  -0.2925418), wk =   0.0039062
        k(  382) = (  -0.3750000  -0.3608439  -0.2194063), wk =   0.0039062
        k(  383) = (  -0.3750000  -0.3608439  -0.1462709), wk =   0.0039062
        k(  384) = (  -0.3750000  -0.3608439  -0.0731354), wk =   0.0039062
        k(  385) = (  -0.2500000  -0.1443376   0.0000000), wk =   0.0039062
        k(  386) = (  -0.2500000  -0.1443376   0.0731354), wk =   0.0039062
        k(  387) = (  -0.2500000  -0.1443376   0.1462709), wk =   0.0039062
        k(  388) = (  -0.2500000  -0.1443376   0.2194063), wk =   0.0039062
        k(  389) = (  -0.2500000  -0.1443376  -0.2925418), wk =   0.0039062
        k(  390) = (  -0.2500000  -0.1443376  -0.2194063), wk =   0.0039062
        k(  391) = (  -0.2500000  -0.1443376  -0.1462709), wk =   0.0039062
        k(  392) = (  -0.2500000  -0.1443376  -0.0731354), wk =   0.0039062
        k(  393) = (  -0.2500000  -0.0000000   0.0000000), wk =   0.0039062
        k(  394) = (  -0.2500000  -0.0000000   0.0731354), wk =   0.0039062
        k(  395) = (  -0.2500000  -0.0000000   0.1462709), wk =   0.0039062
        k(  396) = (  -0.2500000  -0.0000000   0.2194063), wk =   0.0039062
        k(  397) = (  -0.2500000  -0.0000000  -0.2925418), wk =   0.0039062
        k(  398) = (  -0.2500000  -0.0000000  -0.2194063), wk =   0.0039062
        k(  399) = (  -0.2500000  -0.0000000  -0.1462709), wk =   0.0039062
        k(  400) = (  -0.2500000  -0.0000000  -0.0731354), wk =   0.0039062
        k(  401) = (  -0.2500000   0.1443376   0.0000000), wk =   0.0039062
        k(  402) = (  -0.2500000   0.1443376   0.0731354), wk =   0.0039062
        k(  403) = (  -0.2500000   0.1443376   0.1462709), wk =   0.0039062
        k(  404) = (  -0.2500000   0.1443376   0.2194063), wk =   0.0039062
        k(  405) = (  -0.2500000   0.1443376  -0.2925418), wk =   0.0039062
        k(  406) = (  -0.2500000   0.1443376  -0.2194063), wk =   0.0039062
        k(  407) = (  -0.2500000   0.1443376  -0.1462709), wk =   0.0039062
        k(  408) = (  -0.2500000   0.1443376  -0.0731354), wk =   0.0039062
        k(  409) = (  -0.2500000   0.2886751   0.0000000), wk =   0.0039062
        k(  410) = (  -0.2500000   0.2886751   0.0731354), wk =   0.0039062
        k(  411) = (  -0.2500000   0.2886751   0.1462709), wk =   0.0039062
        k(  412) = (  -0.2500000   0.2886751   0.2194063), wk =   0.0039062
        k(  413) = (  -0.2500000   0.2886751  -0.2925418), wk =   0.0039062
        k(  414) = (  -0.2500000   0.2886751  -0.2194063), wk =   0.0039062
        k(  415) = (  -0.2500000   0.2886751  -0.1462709), wk =   0.0039062
        k(  416) = (  -0.2500000   0.2886751  -0.0731354), wk =   0.0039062
        k(  417) = (  -0.2500000  -0.7216878   0.0000000), wk =   0.0039062
        k(  418) = (  -0.2500000  -0.7216878   0.0731354), wk =   0.0039062
        k(  419) = (  -0.2500000  -0.7216878   0.1462709), wk =   0.0039062
        k(  420) = (  -0.2500000  -0.7216878   0.2194063), wk =   0.0039062
        k(  421) = (  -0.2500000  -0.7216878  -0.2925418), wk =   0.0039062
        k(  422) = (  -0.2500000  -0.7216878  -0.2194063), wk =   0.0039062
        k(  423) = (  -0.2500000  -0.7216878  -0.1462709), wk =   0.0039062
        k(  424) = (  -0.2500000  -0.7216878  -0.0731354), wk =   0.0039062
        k(  425) = (  -0.2500000  -0.5773503   0.0000000), wk =   0.0039062
        k(  426) = (  -0.2500000  -0.5773503   0.0731354), wk =   0.0039062
        k(  427) = (  -0.2500000  -0.5773503   0.1462709), wk =   0.0039062
        k(  428) = (  -0.2500000  -0.5773503   0.2194063), wk =   0.0039062
        k(  429) = (  -0.2500000  -0.5773503  -0.2925418), wk =   0.0039062
        k(  430) = (  -0.2500000  -0.5773503  -0.2194063), wk =   0.0039062
        k(  431) = (  -0.2500000  -0.5773503  -0.1462709), wk =   0.0039062
        k(  432) = (  -0.2500000  -0.5773503  -0.0731354), wk =   0.0039062
        k(  433) = (  -0.2500000  -0.4330127   0.0000000), wk =   0.0039062
        k(  434) = (  -0.2500000  -0.4330127   0.0731354), wk =   0.0039062
        k(  435) = (  -0.2500000  -0.4330127   0.1462709), wk =   0.0039062
        k(  436) = (  -0.2500000  -0.4330127   0.2194063), wk =   0.0039062
        k(  437) = (  -0.2500000  -0.4330127  -0.2925418), wk =   0.0039062
        k(  438) = (  -0.2500000  -0.4330127  -0.2194063), wk =   0.0039062
        k(  439) = (  -0.2500000  -0.4330127  -0.1462709), wk =   0.0039062
        k(  440) = (  -0.2500000  -0.4330127  -0.0731354), wk =   0.0039062
        k(  441) = (  -0.2500000  -0.2886751   0.0000000), wk =   0.0039062
        k(  442) = (  -0.2500000  -0.2886751   0.0731354), wk =   0.0039062
        k(  443) = (  -0.2500000  -0.2886751   0.1462709), wk =   0.0039062
        k(  444) = (  -0.2500000  -0.2886751   0.2194063), wk =   0.0039062
        k(  445) = (  -0.2500000  -0.2886751  -0.2925418), wk =   0.0039062
        k(  446) = (  -0.2500000  -0.2886751  -0.2194063), wk =   0.0039062
        k(  447) = (  -0.2500000  -0.2886751  -0.1462709), wk =   0.0039062
        k(  448) = (  -0.2500000  -0.2886751  -0.0731354), wk =   0.0039062
        k(  449) = (  -0.1250000  -0.0721688   0.0000000), wk =   0.0039062
        k(  450) = (  -0.1250000  -0.0721688   0.0731354), wk =   0.0039062
        k(  451) = (  -0.1250000  -0.0721688   0.1462709), wk =   0.0039062
        k(  452) = (  -0.1250000  -0.0721688   0.2194063), wk =   0.0039062
        k(  453) = (  -0.1250000  -0.0721688  -0.2925418), wk =   0.0039062
        k(  454) = (  -0.1250000  -0.0721688  -0.2194063), wk =   0.0039062
        k(  455) = (  -0.1250000  -0.0721688  -0.1462709), wk =   0.0039062
        k(  456) = (  -0.1250000  -0.0721688  -0.0731354), wk =   0.0039062
        k(  457) = (  -0.1250000   0.0721688   0.0000000), wk =   0.0039062
        k(  458) = (  -0.1250000   0.0721688   0.0731354), wk =   0.0039062
        k(  459) = (  -0.1250000   0.0721688   0.1462709), wk =   0.0039062
        k(  460) = (  -0.1250000   0.0721688   0.2194063), wk =   0.0039062
        k(  461) = (  -0.1250000   0.0721688  -0.2925418), wk =   0.0039062
        k(  462) = (  -0.1250000   0.0721688  -0.2194063), wk =   0.0039062
        k(  463) = (  -0.1250000   0.0721688  -0.1462709), wk =   0.0039062
        k(  464) = (  -0.1250000   0.0721688  -0.0731354), wk =   0.0039062
        k(  465) = (  -0.1250000   0.2165064   0.0000000), wk =   0.0039062
        k(  466) = (  -0.1250000   0.2165064   0.0731354), wk =   0.0039062
        k(  467) = (  -0.1250000   0.2165064   0.1462709), wk =   0.0039062
        k(  468) = (  -0.1250000   0.2165064   0.2194063), wk =   0.0039062
        k(  469) = (  -0.1250000   0.2165064  -0.2925418), wk =   0.0039062
        k(  470) = (  -0.1250000   0.2165064  -0.2194063), wk =   0.0039062
        k(  471) = (  -0.1250000   0.2165064  -0.1462709), wk =   0.0039062
        k(  472) = (  -0.1250000   0.2165064  -0.0731354), wk =   0.0039062
        k(  473) = (  -0.1250000   0.3608439   0.0000000), wk =   0.0039062
        k(  474) = (  -0.1250000   0.3608439   0.0731354), wk =   0.0039062
        k(  475) = (  -0.1250000   0.3608439   0.1462709), wk =   0.0039062
        k(  476) = (  -0.1250000   0.3608439   0.2194063), wk =   0.0039062
        k(  477) = (  -0.1250000   0.3608439  -0.2925418), wk =   0.0039062
        k(  478) = (  -0.1250000   0.3608439  -0.2194063), wk =   0.0039062
        k(  479) = (  -0.1250000   0.3608439  -0.1462709), wk =   0.0039062
        k(  480) = (  -0.1250000   0.3608439  -0.0731354), wk =   0.0039062
        k(  481) = (  -0.1250000  -0.6495191   0.0000000), wk =   0.0039062
        k(  482) = (  -0.1250000  -0.6495191   0.0731354), wk =   0.0039062
        k(  483) = (  -0.1250000  -0.6495191   0.1462709), wk =   0.0039062
        k(  484) = (  -0.1250000  -0.6495191   0.2194063), wk =   0.0039062
        k(  485) = (  -0.1250000  -0.6495191  -0.2925418), wk =   0.0039062
        k(  486) = (  -0.1250000  -0.6495191  -0.2194063), wk =   0.0039062
        k(  487) = (  -0.1250000  -0.6495191  -0.1462709), wk =   0.0039062
        k(  488) = (  -0.1250000  -0.6495191  -0.0731354), wk =   0.0039062
        k(  489) = (  -0.1250000  -0.5051815   0.0000000), wk =   0.0039062
        k(  490) = (  -0.1250000  -0.5051815   0.0731354), wk =   0.0039062
        k(  491) = (  -0.1250000  -0.5051815   0.1462709), wk =   0.0039062
        k(  492) = (  -0.1250000  -0.5051815   0.2194063), wk =   0.0039062
        k(  493) = (  -0.1250000  -0.5051815  -0.2925418), wk =   0.0039062
        k(  494) = (  -0.1250000  -0.5051815  -0.2194063), wk =   0.0039062
        k(  495) = (  -0.1250000  -0.5051815  -0.1462709), wk =   0.0039062
        k(  496) = (  -0.1250000  -0.5051815  -0.0731354), wk =   0.0039062
        k(  497) = (  -0.1250000  -0.3608439   0.0000000), wk =   0.0039062
        k(  498) = (  -0.1250000  -0.3608439   0.0731354), wk =   0.0039062
        k(  499) = (  -0.1250000  -0.3608439   0.1462709), wk =   0.0039062
        k(  500) = (  -0.1250000  -0.3608439   0.2194063), wk =   0.0039062
        k(  501) = (  -0.1250000  -0.3608439  -0.2925418), wk =   0.0039062
        k(  502) = (  -0.1250000  -0.3608439  -0.2194063), wk =   0.0039062
        k(  503) = (  -0.1250000  -0.3608439  -0.1462709), wk =   0.0039062
        k(  504) = (  -0.1250000  -0.3608439  -0.0731354), wk =   0.0039062
        k(  505) = (  -0.1250000  -0.2165064   0.0000000), wk =   0.0039062
        k(  506) = (  -0.1250000  -0.2165064   0.0731354), wk =   0.0039062
        k(  507) = (  -0.1250000  -0.2165064   0.1462709), wk =   0.0039062
        k(  508) = (  -0.1250000  -0.2165064   0.2194063), wk =   0.0039062
        k(  509) = (  -0.1250000  -0.2165064  -0.2925418), wk =   0.0039062
        k(  510) = (  -0.1250000  -0.2165064  -0.2194063), wk =   0.0039062
        k(  511) = (  -0.1250000  -0.2165064  -0.1462709), wk =   0.0039062
        k(  512) = (  -0.1250000  -0.2165064  -0.0731354), wk =   0.0039062

                       cryst. coord.
        k(    1) = (   0.0000000   0.0000000   0.0000000), wk =   0.0039062
        k(    2) = (   0.0000000   0.0000000   0.1250000), wk =   0.0039062
        k(    3) = (   0.0000000   0.0000000   0.2500000), wk =   0.0039062
        k(    4) = (   0.0000000   0.0000000   0.3750000), wk =   0.0039062
        k(    5) = (   0.0000000   0.0000000  -0.5000000), wk =   0.0039062
        k(    6) = (   0.0000000   0.0000000  -0.3750000), wk =   0.0039062
        k(    7) = (   0.0000000   0.0000000  -0.2500000), wk =   0.0039062
        k(    8) = (   0.0000000   0.0000000  -0.1250000), wk =   0.0039062
        k(    9) = (   0.0000000   0.1250000   0.0000000), wk =   0.0039062
        k(   10) = (   0.0000000   0.1250000   0.1250000), wk =   0.0039062
        k(   11) = (   0.0000000   0.1250000   0.2500000), wk =   0.0039062
        k(   12) = (   0.0000000   0.1250000   0.3750000), wk =   0.0039062
        k(   13) = (   0.0000000   0.1250000  -0.5000000), wk =   0.0039062
        k(   14) = (   0.0000000   0.1250000  -0.3750000), wk =   0.0039062
        k(   15) = (   0.0000000   0.1250000  -0.2500000), wk =   0.0039062
        k(   16) = (   0.0000000   0.1250000  -0.1250000), wk =   0.0039062
        k(   17) = (   0.0000000   0.2500000   0.0000000), wk =   0.0039062
        k(   18) = (   0.0000000   0.2500000   0.1250000), wk =   0.0039062
        k(   19) = (   0.0000000   0.2500000   0.2500000), wk =   0.0039062
        k(   20) = (   0.0000000   0.2500000   0.3750000), wk =   0.0039062
        k(   21) = (   0.0000000   0.2500000  -0.5000000), wk =   0.0039062
        k(   22) = (   0.0000000   0.2500000  -0.3750000), wk =   0.0039062
        k(   23) = (   0.0000000   0.2500000  -0.2500000), wk =   0.0039062
        k(   24) = (   0.0000000   0.2500000  -0.1250000), wk =   0.0039062
        k(   25) = (   0.0000000   0.3750000   0.0000000), wk =   0.0039062
        k(   26) = (   0.0000000   0.3750000   0.1250000), wk =   0.0039062
        k(   27) = (   0.0000000   0.3750000   0.2500000), wk =   0.0039062
        k(   28) = (   0.0000000   0.3750000   0.3750000), wk =   0.0039062
        k(   29) = (   0.0000000   0.3750000  -0.5000000), wk =   0.0039062
        k(   30) = (   0.0000000   0.3750000  -0.3750000), wk =   0.0039062
        k(   31) = (   0.0000000   0.3750000  -0.2500000), wk =   0.0039062
        k(   32) = (   0.0000000   0.3750000  -0.1250000), wk =   0.0039062
        k(   33) = (   0.0000000  -0.5000000   0.0000000), wk =   0.0039062
        k(   34) = (   0.0000000  -0.5000000   0.1250000), wk =   0.0039062
        k(   35) = (   0.0000000  -0.5000000   0.2500000), wk =   0.0039062
        k(   36) = (   0.0000000  -0.5000000   0.3750000), wk =   0.0039062
        k(   37) = (   0.0000000  -0.5000000  -0.5000000), wk =   0.0039062
        k(   38) = (   0.0000000  -0.5000000  -0.3750000), wk =   0.0039062
        k(   39) = (   0.0000000  -0.5000000  -0.2500000), wk =   0.0039062
        k(   40) = (   0.0000000  -0.5000000  -0.1250000), wk =   0.0039062
        k(   41) = (   0.0000000  -0.3750000   0.0000000), wk =   0.0039062
        k(   42) = (   0.0000000  -0.3750000   0.1250000), wk =   0.0039062
        k(   43) = (   0.0000000  -0.3750000   0.2500000), wk =   0.0039062
        k(   44) = (   0.0000000  -0.3750000   0.3750000), wk =   0.0039062
        k(   45) = (   0.0000000  -0.3750000  -0.5000000), wk =   0.0039062
        k(   46) = (   0.0000000  -0.3750000  -0.3750000), wk =   0.0039062
        k(   47) = (   0.0000000  -0.3750000  -0.2500000), wk =   0.0039062
        k(   48) = (   0.0000000  -0.3750000  -0.1250000), wk =   0.0039062
        k(   49) = (   0.0000000  -0.2500000   0.0000000), wk =   0.0039062
        k(   50) = (   0.0000000  -0.2500000   0.1250000), wk =   0.0039062
        k(   51) = (   0.0000000  -0.2500000   0.2500000), wk =   0.0039062
        k(   52) = (   0.0000000  -0.2500000   0.3750000), wk =   0.0039062
        k(   53) = (   0.0000000  -0.2500000  -0.5000000), wk =   0.0039062
        k(   54) = (   0.0000000  -0.2500000  -0.3750000), wk =   0.0039062
        k(   55) = (   0.0000000  -0.2500000  -0.2500000), wk =   0.0039062
        k(   56) = (   0.0000000  -0.2500000  -0.1250000), wk =   0.0039062
        k(   57) = (   0.0000000  -0.1250000   0.0000000), wk =   0.0039062
        k(   58) = (   0.0000000  -0.1250000   0.1250000), wk =   0.0039062
        k(   59) = (   0.0000000  -0.1250000   0.2500000), wk =   0.0039062
        k(   60) = (   0.0000000  -0.1250000   0.3750000), wk =   0.0039062
        k(   61) = (   0.0000000  -0.1250000  -0.5000000), wk =   0.0039062
        k(   62) = (   0.0000000  -0.1250000  -0.3750000), wk =   0.0039062
        k(   63) = (   0.0000000  -0.1250000  -0.2500000), wk =   0.0039062
        k(   64) = (   0.0000000  -0.1250000  -0.1250000), wk =   0.0039062
        k(   65) = (   0.1250000   0.0000000   0.0000000), wk =   0.0039062
        k(   66) = (   0.1250000   0.0000000   0.1250000), wk =   0.0039062
        k(   67) = (   0.1250000   0.0000000   0.2500000), wk =   0.0039062
        k(   68) = (   0.1250000   0.0000000   0.3750000), wk =   0.0039062
        k(   69) = (   0.1250000   0.0000000  -0.5000000), wk =   0.0039062
        k(   70) = (   0.1250000   0.0000000  -0.3750000), wk =   0.0039062
        k(   71) = (   0.1250000   0.0000000  -0.2500000), wk =   0.0039062
        k(   72) = (   0.1250000   0.0000000  -0.1250000), wk =   0.0039062
        k(   73) = (   0.1250000   0.1250000   0.0000000), wk =   0.0039062
        k(   74) = (   0.1250000   0.1250000   0.1250000), wk =   0.0039062
        k(   75) = (   0.1250000   0.1250000   0.2500000), wk =   0.0039062
        k(   76) = (   0.1250000   0.1250000   0.3750000), wk =   0.0039062
        k(   77) = (   0.1250000   0.1250000  -0.5000000), wk =   0.0039062
        k(   78) = (   0.1250000   0.1250000  -0.3750000), wk =   0.0039062
        k(   79) = (   0.1250000   0.1250000  -0.2500000), wk =   0.0039062
        k(   80) = (   0.1250000   0.1250000  -0.1250000), wk =   0.0039062
        k(   81) = (   0.1250000   0.2500000   0.0000000), wk =   0.0039062
        k(   82) = (   0.1250000   0.2500000   0.1250000), wk =   0.0039062
        k(   83) = (   0.1250000   0.2500000   0.2500000), wk =   0.0039062
        k(   84) = (   0.1250000   0.2500000   0.3750000), wk =   0.0039062
        k(   85) = (   0.1250000   0.2500000  -0.5000000), wk =   0.0039062
        k(   86) = (   0.1250000   0.2500000  -0.3750000), wk =   0.0039062
        k(   87) = (   0.1250000   0.2500000  -0.2500000), wk =   0.0039062
        k(   88) = (   0.1250000   0.2500000  -0.1250000), wk =   0.0039062
        k(   89) = (   0.1250000   0.3750000   0.0000000), wk =   0.0039062
        k(   90) = (   0.1250000   0.3750000   0.1250000), wk =   0.0039062
        k(   91) = (   0.1250000   0.3750000   0.2500000), wk =   0.0039062
        k(   92) = (   0.1250000   0.3750000   0.3750000), wk =   0.0039062
        k(   93) = (   0.1250000   0.3750000  -0.5000000), wk =   0.0039062
        k(   94) = (   0.1250000   0.3750000  -0.3750000), wk =   0.0039062
        k(   95) = (   0.1250000   0.3750000  -0.2500000), wk =   0.0039062
        k(   96) = (   0.1250000   0.3750000  -0.1250000), wk =   0.0039062
        k(   97) = (   0.1250000  -0.5000000   0.0000000), wk =   0.0039062
        k(   98) = (   0.1250000  -0.5000000   0.1250000), wk =   0.0039062
        k(   99) = (   0.1250000  -0.5000000   0.2500000), wk =   0.0039062
        k(  100) = (   0.1250000  -0.5000000   0.3750000), wk =   0.0039062
        k(  101) = (   0.1250000  -0.5000000  -0.5000000), wk =   0.0039062
        k(  102) = (   0.1250000  -0.5000000  -0.3750000), wk =   0.0039062
        k(  103) = (   0.1250000  -0.5000000  -0.2500000), wk =   0.0039062
        k(  104) = (   0.1250000  -0.5000000  -0.1250000), wk =   0.0039062
        k(  105) = (   0.1250000  -0.3750000   0.0000000), wk =   0.0039062
        k(  106) = (   0.1250000  -0.3750000   0.1250000), wk =   0.0039062
        k(  107) = (   0.1250000  -0.3750000   0.2500000), wk =   0.0039062
        k(  108) = (   0.1250000  -0.3750000   0.3750000), wk =   0.0039062
        k(  109) = (   0.1250000  -0.3750000  -0.5000000), wk =   0.0039062
        k(  110) = (   0.1250000  -0.3750000  -0.3750000), wk =   0.0039062
        k(  111) = (   0.1250000  -0.3750000  -0.2500000), wk =   0.0039062
        k(  112) = (   0.1250000  -0.3750000  -0.1250000), wk =   0.0039062
        k(  113) = (   0.1250000  -0.2500000   0.0000000), wk =   0.0039062
        k(  114) = (   0.1250000  -0.2500000   0.1250000), wk =   0.0039062
        k(  115) = (   0.1250000  -0.2500000   0.2500000), wk =   0.0039062
        k(  116) = (   0.1250000  -0.2500000   0.3750000), wk =   0.0039062
        k(  117) = (   0.1250000  -0.2500000  -0.5000000), wk =   0.0039062
        k(  118) = (   0.1250000  -0.2500000  -0.3750000), wk =   0.0039062
        k(  119) = (   0.1250000  -0.2500000  -0.2500000), wk =   0.0039062
        k(  120) = (   0.1250000  -0.2500000  -0.1250000), wk =   0.0039062
        k(  121) = (   0.1250000  -0.1250000   0.0000000), wk =   0.0039062
        k(  122) = (   0.1250000  -0.1250000   0.1250000), wk =   0.0039062
        k(  123) = (   0.1250000  -0.1250000   0.2500000), wk =   0.0039062
        k(  124) = (   0.1250000  -0.1250000   0.3750000), wk =   0.0039062
        k(  125) = (   0.1250000  -0.1250000  -0.5000000), wk =   0.0039062
        k(  126) = (   0.1250000  -0.1250000  -0.3750000), wk =   0.0039062
        k(  127) = (   0.1250000  -0.1250000  -0.2500000), wk =   0.0039062
        k(  128) = (   0.1250000  -0.1250000  -0.1250000), wk =   0.0039062
        k(  129) = (   0.2500000   0.0000000   0.0000000), wk =   0.0039062
        k(  130) = (   0.2500000   0.0000000   0.1250000), wk =   0.0039062
        k(  131) = (   0.2500000   0.0000000   0.2500000), wk =   0.0039062
        k(  132) = (   0.2500000   0.0000000   0.3750000), wk =   0.0039062
        k(  133) = (   0.2500000   0.0000000  -0.5000000), wk =   0.0039062
        k(  134) = (   0.2500000   0.0000000  -0.3750000), wk =   0.0039062
        k(  135) = (   0.2500000   0.0000000  -0.2500000), wk =   0.0039062
        k(  136) = (   0.2500000   0.0000000  -0.1250000), wk =   0.0039062
        k(  137) = (   0.2500000   0.1250000   0.0000000), wk =   0.0039062
        k(  138) = (   0.2500000   0.1250000   0.1250000), wk =   0.0039062
        k(  139) = (   0.2500000   0.1250000   0.2500000), wk =   0.0039062
        k(  140) = (   0.2500000   0.1250000   0.3750000), wk =   0.0039062
        k(  141) = (   0.2500000   0.1250000  -0.5000000), wk =   0.0039062
        k(  142) = (   0.2500000   0.1250000  -0.3750000), wk =   0.0039062
        k(  143) = (   0.2500000   0.1250000  -0.2500000), wk =   0.0039062
        k(  144) = (   0.2500000   0.1250000  -0.1250000), wk =   0.0039062
        k(  145) = (   0.2500000   0.2500000   0.0000000), wk =   0.0039062
        k(  146) = (   0.2500000   0.2500000   0.1250000), wk =   0.0039062
        k(  147) = (   0.2500000   0.2500000   0.2500000), wk =   0.0039062
        k(  148) = (   0.2500000   0.2500000   0.3750000), wk =   0.0039062
        k(  149) = (   0.2500000   0.2500000  -0.5000000), wk =   0.0039062
        k(  150) = (   0.2500000   0.2500000  -0.3750000), wk =   0.0039062
        k(  151) = (   0.2500000   0.2500000  -0.2500000), wk =   0.0039062
        k(  152) = (   0.2500000   0.2500000  -0.1250000), wk =   0.0039062
        k(  153) = (   0.2500000   0.3750000   0.0000000), wk =   0.0039062
        k(  154) = (   0.2500000   0.3750000   0.1250000), wk =   0.0039062
        k(  155) = (   0.2500000   0.3750000   0.2500000), wk =   0.0039062
        k(  156) = (   0.2500000   0.3750000   0.3750000), wk =   0.0039062
        k(  157) = (   0.2500000   0.3750000  -0.5000000), wk =   0.0039062
        k(  158) = (   0.2500000   0.3750000  -0.3750000), wk =   0.0039062
        k(  159) = (   0.2500000   0.3750000  -0.2500000), wk =   0.0039062
        k(  160) = (   0.2500000   0.3750000  -0.1250000), wk =   0.0039062
        k(  161) = (   0.2500000  -0.5000000   0.0000000), wk =   0.0039062
        k(  162) = (   0.2500000  -0.5000000   0.1250000), wk =   0.0039062
        k(  163) = (   0.2500000  -0.5000000   0.2500000), wk =   0.0039062
        k(  164) = (   0.2500000  -0.5000000   0.3750000), wk =   0.0039062
        k(  165) = (   0.2500000  -0.5000000  -0.5000000), wk =   0.0039062
        k(  166) = (   0.2500000  -0.5000000  -0.3750000), wk =   0.0039062
        k(  167) = (   0.2500000  -0.5000000  -0.2500000), wk =   0.0039062
        k(  168) = (   0.2500000  -0.5000000  -0.1250000), wk =   0.0039062
        k(  169) = (   0.2500000  -0.3750000   0.0000000), wk =   0.0039062
        k(  170) = (   0.2500000  -0.3750000   0.1250000), wk =   0.0039062
        k(  171) = (   0.2500000  -0.3750000   0.2500000), wk =   0.0039062
        k(  172) = (   0.2500000  -0.3750000   0.3750000), wk =   0.0039062
        k(  173) = (   0.2500000  -0.3750000  -0.5000000), wk =   0.0039062
        k(  174) = (   0.2500000  -0.3750000  -0.3750000), wk =   0.0039062
        k(  175) = (   0.2500000  -0.3750000  -0.2500000), wk =   0.0039062
        k(  176) = (   0.2500000  -0.3750000  -0.1250000), wk =   0.0039062
        k(  177) = (   0.2500000  -0.2500000   0.0000000), wk =   0.0039062
        k(  178) = (   0.2500000  -0.2500000   0.1250000), wk =   0.0039062
        k(  179) = (   0.2500000  -0.2500000   0.2500000), wk =   0.0039062
        k(  180) = (   0.2500000  -0.2500000   0.3750000), wk =   0.0039062
        k(  181) = (   0.2500000  -0.2500000  -0.5000000), wk =   0.0039062
        k(  182) = (   0.2500000  -0.2500000  -0.3750000), wk =   0.0039062
        k(  183) = (   0.2500000  -0.2500000  -0.2500000), wk =   0.0039062
        k(  184) = (   0.2500000  -0.2500000  -0.1250000), wk =   0.0039062
        k(  185) = (   0.2500000  -0.1250000   0.0000000), wk =   0.0039062
        k(  186) = (   0.2500000  -0.1250000   0.1250000), wk =   0.0039062
        k(  187) = (   0.2500000  -0.1250000   0.2500000), wk =   0.0039062
        k(  188) = (   0.2500000  -0.1250000   0.3750000), wk =   0.0039062
        k(  189) = (   0.2500000  -0.1250000  -0.5000000), wk =   0.0039062
        k(  190) = (   0.2500000  -0.1250000  -0.3750000), wk =   0.0039062
        k(  191) = (   0.2500000  -0.1250000  -0.2500000), wk =   0.0039062
        k(  192) = (   0.2500000  -0.1250000  -0.1250000), wk =   0.0039062
        k(  193) = (   0.3750000   0.0000000   0.0000000), wk =   0.0039062
        k(  194) = (   0.3750000   0.0000000   0.1250000), wk =   0.0039062
        k(  195) = (   0.3750000   0.0000000   0.2500000), wk =   0.0039062
        k(  196) = (   0.3750000   0.0000000   0.3750000), wk =   0.0039062
        k(  197) = (   0.3750000   0.0000000  -0.5000000), wk =   0.0039062
        k(  198) = (   0.3750000   0.0000000  -0.3750000), wk =   0.0039062
        k(  199) = (   0.3750000   0.0000000  -0.2500000), wk =   0.0039062
        k(  200) = (   0.3750000   0.0000000  -0.1250000), wk =   0.0039062
        k(  201) = (   0.3750000   0.1250000   0.0000000), wk =   0.0039062
        k(  202) = (   0.3750000   0.1250000   0.1250000), wk =   0.0039062
        k(  203) = (   0.3750000   0.1250000   0.2500000), wk =   0.0039062
        k(  204) = (   0.3750000   0.1250000   0.3750000), wk =   0.0039062
        k(  205) = (   0.3750000   0.1250000  -0.5000000), wk =   0.0039062
        k(  206) = (   0.3750000   0.1250000  -0.3750000), wk =   0.0039062
        k(  207) = (   0.3750000   0.1250000  -0.2500000), wk =   0.0039062
        k(  208) = (   0.3750000   0.1250000  -0.1250000), wk =   0.0039062
        k(  209) = (   0.3750000   0.2500000   0.0000000), wk =   0.0039062
        k(  210) = (   0.3750000   0.2500000   0.1250000), wk =   0.0039062
        k(  211) = (   0.3750000   0.2500000   0.2500000), wk =   0.0039062
        k(  212) = (   0.3750000   0.2500000   0.3750000), wk =   0.0039062
        k(  213) = (   0.3750000   0.2500000  -0.5000000), wk =   0.0039062
        k(  214) = (   0.3750000   0.2500000  -0.3750000), wk =   0.0039062
        k(  215) = (   0.3750000   0.2500000  -0.2500000), wk =   0.0039062
        k(  216) = (   0.3750000   0.2500000  -0.1250000), wk =   0.0039062
        k(  217) = (   0.3750000   0.3750000   0.0000000), wk =   0.0039062
        k(  218) = (   0.3750000   0.3750000   0.1250000), wk =   0.0039062
        k(  219) = (   0.3750000   0.3750000   0.2500000), wk =   0.0039062
        k(  220) = (   0.3750000   0.3750000   0.3750000), wk =   0.0039062
        k(  221) = (   0.3750000   0.3750000  -0.5000000), wk =   0.0039062
        k(  222) = (   0.3750000   0.3750000  -0.3750000), wk =   0.0039062
        k(  223) = (   0.3750000   0.3750000  -0.2500000), wk =   0.0039062
        k(  224) = (   0.3750000   0.3750000  -0.1250000), wk =   0.0039062
        k(  225) = (   0.3750000  -0.5000000   0.0000000), wk =   0.0039062
        k(  226) = (   0.3750000  -0.5000000   0.1250000), wk =   0.0039062
        k(  227) = (   0.3750000  -0.5000000   0.2500000), wk =   0.0039062
        k(  228) = (   0.3750000  -0.5000000   0.3750000), wk =   0.0039062
        k(  229) = (   0.3750000  -0.5000000  -0.5000000), wk =   0.0039062
        k(  230) = (   0.3750000  -0.5000000  -0.3750000), wk =   0.0039062
        k(  231) = (   0.3750000  -0.5000000  -0.2500000), wk =   0.0039062
        k(  232) = (   0.3750000  -0.5000000  -0.1250000), wk =   0.0039062
        k(  233) = (   0.3750000  -0.3750000   0.0000000), wk =   0.0039062
        k(  234) = (   0.3750000  -0.3750000   0.1250000), wk =   0.0039062
        k(  235) = (   0.3750000  -0.3750000   0.2500000), wk =   0.0039062
        k(  236) = (   0.3750000  -0.3750000   0.3750000), wk =   0.0039062
        k(  237) = (   0.3750000  -0.3750000  -0.5000000), wk =   0.0039062
        k(  238) = (   0.3750000  -0.3750000  -0.3750000), wk =   0.0039062
        k(  239) = (   0.3750000  -0.3750000  -0.2500000), wk =   0.0039062
        k(  240) = (   0.3750000  -0.3750000  -0.1250000), wk =   0.0039062
        k(  241) = (   0.3750000  -0.2500000   0.0000000), wk =   0.0039062
        k(  242) = (   0.3750000  -0.2500000   0.1250000), wk =   0.0039062
        k(  243) = (   0.3750000  -0.2500000   0.2500000), wk =   0.0039062
        k(  244) = (   0.3750000  -0.2500000   0.3750000), wk =   0.0039062
        k(  245) = (   0.3750000  -0.2500000  -0.5000000), wk =   0.0039062
        k(  246) = (   0.3750000  -0.2500000  -0.3750000), wk =   0.0039062
        k(  247) = (   0.3750000  -0.2500000  -0.2500000), wk =   0.0039062
        k(  248) = (   0.3750000  -0.2500000  -0.1250000), wk =   0.0039062
        k(  249) = (   0.3750000  -0.1250000   0.0000000), wk =   0.0039062
        k(  250) = (   0.3750000  -0.1250000   0.1250000), wk =   0.0039062
        k(  251) = (   0.3750000  -0.1250000   0.2500000), wk =   0.0039062
        k(  252) = (   0.3750000  -0.1250000   0.3750000), wk =   0.0039062
        k(  253) = (   0.3750000  -0.1250000  -0.5000000), wk =   0.0039062
        k(  254) = (   0.3750000  -0.1250000  -0.3750000), wk =   0.0039062
        k(  255) = (   0.3750000  -0.1250000  -0.2500000), wk =   0.0039062
        k(  256) = (   0.3750000  -0.1250000  -0.1250000), wk =   0.0039062
        k(  257) = (  -0.5000000   0.0000000   0.0000000), wk =   0.0039062
        k(  258) = (  -0.5000000   0.0000000   0.1250000), wk =   0.0039062
        k(  259) = (  -0.5000000   0.0000000   0.2500000), wk =   0.0039062
        k(  260) = (  -0.5000000   0.0000000   0.3750000), wk =   0.0039062
        k(  261) = (  -0.5000000   0.0000000  -0.5000000), wk =   0.0039062
        k(  262) = (  -0.5000000   0.0000000  -0.3750000), wk =   0.0039062
        k(  263) = (  -0.5000000   0.0000000  -0.2500000), wk =   0.0039062
        k(  264) = (  -0.5000000   0.0000000  -0.1250000), wk =   0.0039062
        k(  265) = (  -0.5000000   0.1250000   0.0000000), wk =   0.0039062
        k(  266) = (  -0.5000000   0.1250000   0.1250000), wk =   0.0039062
        k(  267) = (  -0.5000000   0.1250000   0.2500000), wk =   0.0039062
        k(  268) = (  -0.5000000   0.1250000   0.3750000), wk =   0.0039062
        k(  269) = (  -0.5000000   0.1250000  -0.5000000), wk =   0.0039062
        k(  270) = (  -0.5000000   0.1250000  -0.3750000), wk =   0.0039062
        k(  271) = (  -0.5000000   0.1250000  -0.2500000), wk =   0.0039062
        k(  272) = (  -0.5000000   0.1250000  -0.1250000), wk =   0.0039062
        k(  273) = (  -0.5000000   0.2500000   0.0000000), wk =   0.0039062
        k(  274) = (  -0.5000000   0.2500000   0.1250000), wk =   0.0039062
        k(  275) = (  -0.5000000   0.2500000   0.2500000), wk =   0.0039062
        k(  276) = (  -0.5000000   0.2500000   0.3750000), wk =   0.0039062
        k(  277) = (  -0.5000000   0.2500000  -0.5000000), wk =   0.0039062
        k(  278) = (  -0.5000000   0.2500000  -0.3750000), wk =   0.0039062
        k(  279) = (  -0.5000000   0.2500000  -0.2500000), wk =   0.0039062
        k(  280) = (  -0.5000000   0.2500000  -0.1250000), wk =   0.0039062
        k(  281) = (  -0.5000000   0.3750000   0.0000000), wk =   0.0039062
        k(  282) = (  -0.5000000   0.3750000   0.1250000), wk =   0.0039062
        k(  283) = (  -0.5000000   0.3750000   0.2500000), wk =   0.0039062
        k(  284) = (  -0.5000000   0.3750000   0.3750000), wk =   0.0039062
        k(  285) = (  -0.5000000   0.3750000  -0.5000000), wk =   0.0039062
        k(  286) = (  -0.5000000   0.3750000  -0.3750000), wk =   0.0039062
        k(  287) = (  -0.5000000   0.3750000  -0.2500000), wk =   0.0039062
        k(  288) = (  -0.5000000   0.3750000  -0.1250000), wk =   0.0039062
        k(  289) = (  -0.5000000  -0.5000000   0.0000000), wk =   0.0039062
        k(  290) = (  -0.5000000  -0.5000000   0.1250000), wk =   0.0039062
        k(  291) = (  -0.5000000  -0.5000000   0.2500000), wk =   0.0039062
        k(  292) = (  -0.5000000  -0.5000000   0.3750000), wk =   0.0039062
        k(  293) = (  -0.5000000  -0.5000000  -0.5000000), wk =   0.0039062
        k(  294) = (  -0.5000000  -0.5000000  -0.3750000), wk =   0.0039062
        k(  295) = (  -0.5000000  -0.5000000  -0.2500000), wk =   0.0039062
        k(  296) = (  -0.5000000  -0.5000000  -0.1250000), wk =   0.0039062
        k(  297) = (  -0.5000000  -0.3750000   0.0000000), wk =   0.0039062
        k(  298) = (  -0.5000000  -0.3750000   0.1250000), wk =   0.0039062
        k(  299) = (  -0.5000000  -0.3750000   0.2500000), wk =   0.0039062
        k(  300) = (  -0.5000000  -0.3750000   0.3750000), wk =   0.0039062
        k(  301) = (  -0.5000000  -0.3750000  -0.5000000), wk =   0.0039062
        k(  302) = (  -0.5000000  -0.3750000  -0.3750000), wk =   0.0039062
        k(  303) = (  -0.5000000  -0.3750000  -0.2500000), wk =   0.0039062
        k(  304) = (  -0.5000000  -0.3750000  -0.1250000), wk =   0.0039062
        k(  305) = (  -0.5000000  -0.2500000   0.0000000), wk =   0.0039062
        k(  306) = (  -0.5000000  -0.2500000   0.1250000), wk =   0.0039062
        k(  307) = (  -0.5000000  -0.2500000   0.2500000), wk =   0.0039062
        k(  308) = (  -0.5000000  -0.2500000   0.3750000), wk =   0.0039062
        k(  309) = (  -0.5000000  -0.2500000  -0.5000000), wk =   0.0039062
        k(  310) = (  -0.5000000  -0.2500000  -0.3750000), wk =   0.0039062
        k(  311) = (  -0.5000000  -0.2500000  -0.2500000), wk =   0.0039062
        k(  312) = (  -0.5000000  -0.2500000  -0.1250000), wk =   0.0039062
        k(  313) = (  -0.5000000  -0.1250000   0.0000000), wk =   0.0039062
        k(  314) = (  -0.5000000  -0.1250000   0.1250000), wk =   0.0039062
        k(  315) = (  -0.5000000  -0.1250000   0.2500000), wk =   0.0039062
        k(  316) = (  -0.5000000  -0.1250000   0.3750000), wk =   0.0039062
        k(  317) = (  -0.5000000  -0.1250000  -0.5000000), wk =   0.0039062
        k(  318) = (  -0.5000000  -0.1250000  -0.3750000), wk =   0.0039062
        k(  319) = (  -0.5000000  -0.1250000  -0.2500000), wk =   0.0039062
        k(  320) = (  -0.5000000  -0.1250000  -0.1250000), wk =   0.0039062
        k(  321) = (  -0.3750000   0.0000000   0.0000000), wk =   0.0039062
        k(  322) = (  -0.3750000   0.0000000   0.1250000), wk =   0.0039062
        k(  323) = (  -0.3750000   0.0000000   0.2500000), wk =   0.0039062
        k(  324) = (  -0.3750000   0.0000000   0.3750000), wk =   0.0039062
        k(  325) = (  -0.3750000   0.0000000  -0.5000000), wk =   0.0039062
        k(  326) = (  -0.3750000   0.0000000  -0.3750000), wk =   0.0039062
        k(  327) = (  -0.3750000   0.0000000  -0.2500000), wk =   0.0039062
        k(  328) = (  -0.3750000   0.0000000  -0.1250000), wk =   0.0039062
        k(  329) = (  -0.3750000   0.1250000   0.0000000), wk =   0.0039062
        k(  330) = (  -0.3750000   0.1250000   0.1250000), wk =   0.0039062
        k(  331) = (  -0.3750000   0.1250000   0.2500000), wk =   0.0039062
        k(  332) = (  -0.3750000   0.1250000   0.3750000), wk =   0.0039062
        k(  333) = (  -0.3750000   0.1250000  -0.5000000), wk =   0.0039062
        k(  334) = (  -0.3750000   0.1250000  -0.3750000), wk =   0.0039062
        k(  335) = (  -0.3750000   0.1250000  -0.2500000), wk =   0.0039062
        k(  336) = (  -0.3750000   0.1250000  -0.1250000), wk =   0.0039062
        k(  337) = (  -0.3750000   0.2500000   0.0000000), wk =   0.0039062
        k(  338) = (  -0.3750000   0.2500000   0.1250000), wk =   0.0039062
        k(  339) = (  -0.3750000   0.2500000   0.2500000), wk =   0.0039062
        k(  340) = (  -0.3750000   0.2500000   0.3750000), wk =   0.0039062
        k(  341) = (  -0.3750000   0.2500000  -0.5000000), wk =   0.0039062
        k(  342) = (  -0.3750000   0.2500000  -0.3750000), wk =   0.0039062
        k(  343) = (  -0.3750000   0.2500000  -0.2500000), wk =   0.0039062
        k(  344) = (  -0.3750000   0.2500000  -0.1250000), wk =   0.0039062
        k(  345) = (  -0.3750000   0.3750000   0.0000000), wk =   0.0039062
        k(  346) = (  -0.3750000   0.3750000   0.1250000), wk =   0.0039062
        k(  347) = (  -0.3750000   0.3750000   0.2500000), wk =   0.0039062
        k(  348) = (  -0.3750000   0.3750000   0.3750000), wk =   0.0039062
        k(  349) = (  -0.3750000   0.3750000  -0.5000000), wk =   0.0039062
        k(  350) = (  -0.3750000   0.3750000  -0.3750000), wk =   0.0039062
        k(  351) = (  -0.3750000   0.3750000  -0.2500000), wk =   0.0039062
        k(  352) = (  -0.3750000   0.3750000  -0.1250000), wk =   0.0039062
        k(  353) = (  -0.3750000  -0.5000000   0.0000000), wk =   0.0039062
        k(  354) = (  -0.3750000  -0.5000000   0.1250000), wk =   0.0039062
        k(  355) = (  -0.3750000  -0.5000000   0.2500000), wk =   0.0039062
        k(  356) = (  -0.3750000  -0.5000000   0.3750000), wk =   0.0039062
        k(  357) = (  -0.3750000  -0.5000000  -0.5000000), wk =   0.0039062
        k(  358) = (  -0.3750000  -0.5000000  -0.3750000), wk =   0.0039062
        k(  359) = (  -0.3750000  -0.5000000  -0.2500000), wk =   0.0039062
        k(  360) = (  -0.3750000  -0.5000000  -0.1250000), wk =   0.0039062
        k(  361) = (  -0.3750000  -0.3750000   0.0000000), wk =   0.0039062
        k(  362) = (  -0.3750000  -0.3750000   0.1250000), wk =   0.0039062
        k(  363) = (  -0.3750000  -0.3750000   0.2500000), wk =   0.0039062
        k(  364) = (  -0.3750000  -0.3750000   0.3750000), wk =   0.0039062
        k(  365) = (  -0.3750000  -0.3750000  -0.5000000), wk =   0.0039062
        k(  366) = (  -0.3750000  -0.3750000  -0.3750000), wk =   0.0039062
        k(  367) = (  -0.3750000  -0.3750000  -0.2500000), wk =   0.0039062
        k(  368) = (  -0.3750000  -0.3750000  -0.1250000), wk =   0.0039062
        k(  369) = (  -0.3750000  -0.2500000   0.0000000), wk =   0.0039062
        k(  370) = (  -0.3750000  -0.2500000   0.1250000), wk =   0.0039062
        k(  371) = (  -0.3750000  -0.2500000   0.2500000), wk =   0.0039062
        k(  372) = (  -0.3750000  -0.2500000   0.3750000), wk =   0.0039062
        k(  373) = (  -0.3750000  -0.2500000  -0.5000000), wk =   0.0039062
        k(  374) = (  -0.3750000  -0.2500000  -0.3750000), wk =   0.0039062
        k(  375) = (  -0.3750000  -0.2500000  -0.2500000), wk =   0.0039062
        k(  376) = (  -0.3750000  -0.2500000  -0.1250000), wk =   0.0039062
        k(  377) = (  -0.3750000  -0.1250000   0.0000000), wk =   0.0039062
        k(  378) = (  -0.3750000  -0.1250000   0.1250000), wk =   0.0039062
        k(  379) = (  -0.3750000  -0.1250000   0.2500000), wk =   0.0039062
        k(  380) = (  -0.3750000  -0.1250000   0.3750000), wk =   0.0039062
        k(  381) = (  -0.3750000  -0.1250000  -0.5000000), wk =   0.0039062
        k(  382) = (  -0.3750000  -0.1250000  -0.3750000), wk =   0.0039062
        k(  383) = (  -0.3750000  -0.1250000  -0.2500000), wk =   0.0039062
        k(  384) = (  -0.3750000  -0.1250000  -0.1250000), wk =   0.0039062
        k(  385) = (  -0.2500000   0.0000000   0.0000000), wk =   0.0039062
        k(  386) = (  -0.2500000   0.0000000   0.1250000), wk =   0.0039062
        k(  387) = (  -0.2500000   0.0000000   0.2500000), wk =   0.0039062
        k(  388) = (  -0.2500000   0.0000000   0.3750000), wk =   0.0039062
        k(  389) = (  -0.2500000   0.0000000  -0.5000000), wk =   0.0039062
        k(  390) = (  -0.2500000   0.0000000  -0.3750000), wk =   0.0039062
        k(  391) = (  -0.2500000   0.0000000  -0.2500000), wk =   0.0039062
        k(  392) = (  -0.2500000   0.0000000  -0.1250000), wk =   0.0039062
        k(  393) = (  -0.2500000   0.1250000   0.0000000), wk =   0.0039062
        k(  394) = (  -0.2500000   0.1250000   0.1250000), wk =   0.0039062
        k(  395) = (  -0.2500000   0.1250000   0.2500000), wk =   0.0039062
        k(  396) = (  -0.2500000   0.1250000   0.3750000), wk =   0.0039062
        k(  397) = (  -0.2500000   0.1250000  -0.5000000), wk =   0.0039062
        k(  398) = (  -0.2500000   0.1250000  -0.3750000), wk =   0.0039062
        k(  399) = (  -0.2500000   0.1250000  -0.2500000), wk =   0.0039062
        k(  400) = (  -0.2500000   0.1250000  -0.1250000), wk =   0.0039062
        k(  401) = (  -0.2500000   0.2500000   0.0000000), wk =   0.0039062
        k(  402) = (  -0.2500000   0.2500000   0.1250000), wk =   0.0039062
        k(  403) = (  -0.2500000   0.2500000   0.2500000), wk =   0.0039062
        k(  404) = (  -0.2500000   0.2500000   0.3750000), wk =   0.0039062
        k(  405) = (  -0.2500000   0.2500000  -0.5000000), wk =   0.0039062
        k(  406) = (  -0.2500000   0.2500000  -0.3750000), wk =   0.0039062
        k(  407) = (  -0.2500000   0.2500000  -0.2500000), wk =   0.0039062
        k(  408) = (  -0.2500000   0.2500000  -0.1250000), wk =   0.0039062
        k(  409) = (  -0.2500000   0.3750000   0.0000000), wk =   0.0039062
        k(  410) = (  -0.2500000   0.3750000   0.1250000), wk =   0.0039062
        k(  411) = (  -0.2500000   0.3750000   0.2500000), wk =   0.0039062
        k(  412) = (  -0.2500000   0.3750000   0.3750000), wk =   0.0039062
        k(  413) = (  -0.2500000   0.3750000  -0.5000000), wk =   0.0039062
        k(  414) = (  -0.2500000   0.3750000  -0.3750000), wk =   0.0039062
        k(  415) = (  -0.2500000   0.3750000  -0.2500000), wk =   0.0039062
        k(  416) = (  -0.2500000   0.3750000  -0.1250000), wk =   0.0039062
        k(  417) = (  -0.2500000  -0.5000000   0.0000000), wk =   0.0039062
        k(  418) = (  -0.2500000  -0.5000000   0.1250000), wk =   0.0039062
        k(  419) = (  -0.2500000  -0.5000000   0.2500000), wk =   0.0039062
        k(  420) = (  -0.2500000  -0.5000000   0.3750000), wk =   0.0039062
        k(  421) = (  -0.2500000  -0.5000000  -0.5000000), wk =   0.0039062
        k(  422) = (  -0.2500000  -0.5000000  -0.3750000), wk =   0.0039062
        k(  423) = (  -0.2500000  -0.5000000  -0.2500000), wk =   0.0039062
        k(  424) = (  -0.2500000  -0.5000000  -0.1250000), wk =   0.0039062
        k(  425) = (  -0.2500000  -0.3750000   0.0000000), wk =   0.0039062
        k(  426) = (  -0.2500000  -0.3750000   0.1250000), wk =   0.0039062
        k(  427) = (  -0.2500000  -0.3750000   0.2500000), wk =   0.0039062
        k(  428) = (  -0.2500000  -0.3750000   0.3750000), wk =   0.0039062
        k(  429) = (  -0.2500000  -0.3750000  -0.5000000), wk =   0.0039062
        k(  430) = (  -0.2500000  -0.3750000  -0.3750000), wk =   0.0039062
        k(  431) = (  -0.2500000  -0.3750000  -0.2500000), wk =   0.0039062
        k(  432) = (  -0.2500000  -0.3750000  -0.1250000), wk =   0.0039062
        k(  433) = (  -0.2500000  -0.2500000   0.0000000), wk =   0.0039062
        k(  434) = (  -0.2500000  -0.2500000   0.1250000), wk =   0.0039062
        k(  435) = (  -0.2500000  -0.2500000   0.2500000), wk =   0.0039062
        k(  436) = (  -0.2500000  -0.2500000   0.3750000), wk =   0.0039062
        k(  437) = (  -0.2500000  -0.2500000  -0.5000000), wk =   0.0039062
        k(  438) = (  -0.2500000  -0.2500000  -0.3750000), wk =   0.0039062
        k(  439) = (  -0.2500000  -0.2500000  -0.2500000), wk =   0.0039062
        k(  440) = (  -0.2500000  -0.2500000  -0.1250000), wk =   0.0039062
        k(  441) = (  -0.2500000  -0.1250000   0.0000000), wk =   0.0039062
        k(  442) = (  -0.2500000  -0.1250000   0.1250000), wk =   0.0039062
        k(  443) = (  -0.2500000  -0.1250000   0.2500000), wk =   0.0039062
        k(  444) = (  -0.2500000  -0.1250000   0.3750000), wk =   0.0039062
        k(  445) = (  -0.2500000  -0.1250000  -0.5000000), wk =   0.0039062
        k(  446) = (  -0.2500000  -0.1250000  -0.3750000), wk =   0.0039062
        k(  447) = (  -0.2500000  -0.1250000  -0.2500000), wk =   0.0039062
        k(  448) = (  -0.2500000  -0.1250000  -0.1250000), wk =   0.0039062
        k(  449) = (  -0.1250000   0.0000000   0.0000000), wk =   0.0039062
        k(  450) = (  -0.1250000   0.0000000   0.1250000), wk =   0.0039062
        k(  451) = (  -0.1250000   0.0000000   0.2500000), wk =   0.0039062
        k(  452) = (  -0.1250000   0.0000000   0.3750000), wk =   0.0039062
        k(  453) = (  -0.1250000   0.0000000  -0.5000000), wk =   0.0039062
        k(  454) = (  -0.1250000   0.0000000  -0.3750000), wk =   0.0039062
        k(  455) = (  -0.1250000   0.0000000  -0.2500000), wk =   0.0039062
        k(  456) = (  -0.1250000   0.0000000  -0.1250000), wk =   0.0039062
        k(  457) = (  -0.1250000   0.1250000   0.0000000), wk =   0.0039062
        k(  458) = (  -0.1250000   0.1250000   0.1250000), wk =   0.0039062
        k(  459) = (  -0.1250000   0.1250000   0.2500000), wk =   0.0039062
        k(  460) = (  -0.1250000   0.1250000   0.3750000), wk =   0.0039062
        k(  461) = (  -0.1250000   0.1250000  -0.5000000), wk =   0.0039062
        k(  462) = (  -0.1250000   0.1250000  -0.3750000), wk =   0.0039062
        k(  463) = (  -0.1250000   0.1250000  -0.2500000), wk =   0.0039062
        k(  464) = (  -0.1250000   0.1250000  -0.1250000), wk =   0.0039062
        k(  465) = (  -0.1250000   0.2500000   0.0000000), wk =   0.0039062
        k(  466) = (  -0.1250000   0.2500000   0.1250000), wk =   0.0039062
        k(  467) = (  -0.1250000   0.2500000   0.2500000), wk =   0.0039062
        k(  468) = (  -0.1250000   0.2500000   0.3750000), wk =   0.0039062
        k(  469) = (  -0.1250000   0.2500000  -0.5000000), wk =   0.0039062
        k(  470) = (  -0.1250000   0.2500000  -0.3750000), wk =   0.0039062
        k(  471) = (  -0.1250000   0.2500000  -0.2500000), wk =   0.0039062
        k(  472) = (  -0.1250000   0.2500000  -0.1250000), wk =   0.0039062
        k(  473) = (  -0.1250000   0.3750000   0.0000000), wk =   0.0039062
        k(  474) = (  -0.1250000   0.3750000   0.1250000), wk =   0.0039062
        k(  475) = (  -0.1250000   0.3750000   0.2500000), wk =   0.0039062
        k(  476) = (  -0.1250000   0.3750000   0.3750000), wk =   0.0039062
        k(  477) = (  -0.1250000   0.3750000  -0.5000000), wk =   0.0039062
        k(  478) = (  -0.1250000   0.3750000  -0.3750000), wk =   0.0039062
        k(  479) = (  -0.1250000   0.3750000  -0.2500000), wk =   0.0039062
        k(  480) = (  -0.1250000   0.3750000  -0.1250000), wk =   0.0039062
        k(  481) = (  -0.1250000  -0.5000000   0.0000000), wk =   0.0039062
        k(  482) = (  -0.1250000  -0.5000000   0.1250000), wk =   0.0039062
        k(  483) = (  -0.1250000  -0.5000000   0.2500000), wk =   0.0039062
        k(  484) = (  -0.1250000  -0.5000000   0.3750000), wk =   0.0039062
        k(  485) = (  -0.1250000  -0.5000000  -0.5000000), wk =   0.0039062
        k(  486) = (  -0.1250000  -0.5000000  -0.3750000), wk =   0.0039062
        k(  487) = (  -0.1250000  -0.5000000  -0.2500000), wk =   0.0039062
[...]

    -3.1064  -0.2535   9.2049  13.8896  15.9846  17.8049  18.4463  19.6918

     occupation numbers 
     1.0000   1.0000   1.0000   0.0000   0.0000   0.0000   0.0000   0.0000

          k =-0.1250 0.0722-0.1463 (   815 PWs)   bands (ev):

    -3.4289   0.6696   7.1774  15.1578  16.8692  17.6085  19.1358  19.6310

     occupation numbers 
     1.0000   1.0000   1.0000   0.0000   0.0000   0.0000   0.0000   0.0000

          k =-0.1250 0.0722-0.0731 (   820 PWs)   bands (ev):

    -3.6688   1.8791   5.3300  15.1747  17.3532  18.9828  19.5172  20.1763

     occupation numbers 
     1.0000   1.0000   1.0000   0.0000   0.0000   0.0000   0.0000   0.0000

          k =-0.1250 0.2165 0.0000 (   819 PWs)   bands (ev):

    -2.9223   3.6991   4.9109  12.5865  13.4719  18.5588  18.7213  19.1868

     occupation numbers 
     1.0000   1.0000   1.0000   0.0000   0.0000   0.0000   0.0000   0.0000

          k =-0.1250 0.2165 0.0731 (   820 PWs)   bands (ev):

    -2.8378   2.6995   6.1111  12.6716  13.5425  17.7832  18.1747  19.2221

     occupation numbers 
     1.0000   1.0000   1.0000   0.0000   0.0000   0.0000   0.0000   0.0000

          k =-0.1250 0.2165 0.1463 (   819 PWs)   bands (ev):

    -2.5996   1.4938   7.9352  12.8843  13.7369  16.7671  17.0442  17.6306

     occupation numbers 
     1.0000   1.0000   1.0000   0.0000   0.0000   0.0000   0.0000   0.0000

          k =-0.1250 0.2165 0.2194 (   824 PWs)   bands (ev):

    -2.2793   0.5738   9.9153  13.1653  13.9076  14.9836  16.0105  16.7323

     occupation numbers 
     1.0000   1.0000   1.0000   0.0000   0.0000   0.0000   0.0000   0.0000

          k =-0.1250 0.2165-0.2925 (   820 PWs)   bands (ev):

    -2.0982   0.1906  11.5119  12.7355  13.5691  14.3328  15.7005  16.4107

     occupation numbers 
     1.0000   1.0000   0.0000   0.0000   0.0000   0.0000   0.0000   0.0000

          k =-0.1250 0.2165-0.2194 (   824 PWs)   bands (ev):

    -2.2787   0.5712   9.9743  12.9442  13.9839  15.0708  16.0225  16.7343

     occupation numbers 
     1.0000   1.0000   1.0000   0.0000   0.0000   0.0000   0.0000   0.0000

          k =-0.1250 0.2165-0.1463 (   819 PWs)   bands (ev):

    -2.5989   1.4890   7.9659  12.8011  13.7509  16.6746  17.1847  17.6609

     occupation numbers 
     1.0000   1.0000   1.0000   0.0000   0.0000   0.0000   0.0000   0.0000

          k =-0.1250 0.2165-0.0731 (   820 PWs)   bands (ev):

    -2.8378   2.6926   6.1287  12.6398  13.5471  17.7354  18.1877  19.3686

     occupation numbers 
     1.0000   1.0000   1.0000   0.0000   0.0000   0.0000   0.0000   0.0000

          k =-0.1250 0.3608 0.0000 (   829 PWs)   bands (ev):

    -1.2687   5.2966   6.4975   8.3932  11.5718  14.5564  15.6269  17.3996

     occupation numbers 
     1.0000   1.0000   1.0000   1.0000   0.0000   0.0000   0.0000   0.0000

          k =-0.1250 0.3608 0.0731 (   826 PWs)   bands (ev):

    -1.1853   4.3167   7.6424   8.4955  11.6524  13.6583  16.4235  17.0480

     occupation numbers 
     1.0000   1.0000   1.0000   1.0000   0.0000   0.0000   0.0000   0.0000

          k =-0.1250 0.3608 0.1463 (   828 PWs)   bands (ev):

    -0.9499   3.1247   8.6171   9.5070  11.8712  12.6077  15.7225  17.7495

     occupation numbers 
     1.0000   1.0000   1.0000   1.0000   0.0000   0.0000   0.0000   0.0000

          k =-0.1250 0.3608 0.2194 (   831 PWs)   bands (ev):

    -0.6343   2.2148   8.9253  11.2329  11.7755  12.3576  14.9174  16.3799

     occupation numbers 
     1.0000   1.0000   1.0000   0.0000   0.0000   0.0000   0.0000   0.0000

          k =-0.1250 0.3608-0.2925 (   834 PWs)   bands (ev):

    -0.4561   1.8357   9.0790  11.3722  12.0602  13.4420  13.9741  15.2636

     occupation numbers 
     1.0000   1.0000   1.0000   0.0000   0.0000   0.0000   0.0000   0.0000

          k =-0.1250 0.3608-0.2194 (   831 PWs)   bands (ev):

    -0.6329   2.2098   8.9217  11.2941  11.9343  12.1922  14.7365  16.4954

     occupation numbers 
     1.0000   1.0000   1.0000   0.0000   0.0000   0.0000   0.0000   0.0000

          k =-0.1250 0.3608-0.1463 (   828 PWs)   bands (ev):

    -0.9487   3.1158   8.6188   9.5568  11.8426  12.6515  15.5054  17.9428

     occupation numbers 
     1.0000   1.0000   1.0000   1.0000   0.0000   0.0000   0.0000   0.0000

          k =-0.1250 0.3608-0.0731 (   826 PWs)   bands (ev):

    -1.1846   4.3037   7.6759   8.4911  11.6395  13.7302  16.0284  17.3886

     occupation numbers 
     1.0000   1.0000   1.0000   1.0000   0.0000   0.0000   0.0000   0.0000

          k =-0.1250-0.6495 0.0000 (   835 PWs)   bands (ev):

     1.1865   4.4024   7.7211   8.8294  10.6716  10.9679  12.0173  16.6992

     occupation numbers 
     1.0000   1.0000   1.0000   1.0000   0.9786   0.0004   0.0000   0.0000

          k =-0.1250-0.6495 0.0731 (   834 PWs)   bands (ev):

     1.2680   4.4798   6.7516   9.7331  10.0603  10.9502  13.1542  16.0998

     occupation numbers 
     1.0000   1.0000   1.0000   1.0000   1.0000   0.0009   0.0000   0.0000

          k =-0.1250-0.6495 0.1463 (   830 PWs)   bands (ev):

     1.4984   4.6795   5.6023   8.7061  10.9689  11.8587  14.5639  15.4540

     occupation numbers 
     1.0000   1.0000   1.0000   1.0000   0.0004   0.0000   0.0000   0.0000

          k =-0.1250-0.6495 0.2194 (   825 PWs)   bands (ev):

     1.8067   4.5735   5.1105   7.8516  11.2834  13.3410  14.5961  16.5635

     occupation numbers 
     1.0000   1.0000   1.0000   1.0000   0.0000   0.0000   0.0000   0.0000

          k =-0.1250-0.6495-0.2925 (   834 PWs)   bands (ev):

     1.9799   4.2452   5.2295   7.5018  11.4350  13.5915  15.3745  16.6628

     occupation numbers 
     1.0000   1.0000   1.0000   1.0000   0.0000   0.0000   0.0000   0.0000

          k =-0.1250-0.6495-0.2194 (   825 PWs)   bands (ev):

     1.8089   4.5628   5.1111   7.8600  11.2987  13.6062  14.1778  16.7115

     occupation numbers 
     1.0000   1.0000   1.0000   1.0000   0.0000   0.0000   0.0000   0.0000

          k =-0.1250-0.6495-0.1463 (   830 PWs)   bands (ev):

     1.5007   4.6729   5.5934   8.7140  11.0341  11.9187  14.1759  15.7054

     occupation numbers 
     1.0000   1.0000   1.0000   1.0000   0.0000   0.0000   0.0000   0.0000

          k =-0.1250-0.6495-0.0731 (   834 PWs)   bands (ev):

     1.2692   4.4771   6.7356   9.6185  10.3743  10.8395  13.0179  16.1591

     occupation numbers 
     1.0000   1.0000   1.0000   1.0000   1.0000   0.0622   0.0000   0.0000

          k =-0.1250-0.5052 0.0000 (   835 PWs)   bands (ev):

     1.1846   4.4058   7.7217   8.8176  10.6714  10.9739  12.0283  16.6993

     occupation numbers 
     1.0000   1.0000   1.0000   1.0000   0.9788   0.0004   0.0000   0.0000

          k =-0.1250-0.5052 0.0731 (   834 PWs)   bands (ev):

     1.2674   4.4806   6.7334   9.6140  10.3695  10.8443  13.0339  16.1562

     occupation numbers 
     1.0000   1.0000   1.0000   1.0000   1.0000   0.0521   0.0000   0.0000

          k =-0.1250-0.5052 0.1463 (   830 PWs)   bands (ev):

     1.4988   4.6765   5.5916   8.7158  11.0269  11.9109  14.2200  15.6793

     occupation numbers 
     1.0000   1.0000   1.0000   1.0000   0.0000   0.0000   0.0000   0.0000

          k =-0.1250-0.5052 0.2194 (   825 PWs)   bands (ev):

     1.8069   4.5628   5.1136   7.8617  11.2910  13.5549  14.2546  16.7024

     occupation numbers 
     1.0000   1.0000   1.0000   1.0000   0.0000   0.0000   0.0000   0.0000

          k =-0.1250-0.5052-0.2925 (   834 PWs)   bands (ev):

     1.9777   4.2447   5.2330   7.5035  11.4252  13.5823  15.4028  16.7012

     occupation numbers 
     1.0000   1.0000   1.0000   1.0000   0.0000   0.0000   0.0000   0.0000

          k =-0.1250-0.5052-0.2194 (   825 PWs)   bands (ev):

     1.8046   4.5738   5.1130   7.8538  11.2721  13.3195  14.6497  16.5467

     occupation numbers 
     1.0000   1.0000   1.0000   1.0000   0.0000   0.0000   0.0000   0.0000

          k =-0.1250-0.5052-0.1463 (   830 PWs)   bands (ev):

     1.4965   4.6831   5.6010   8.7092  10.9515  11.8605  14.6384  15.3904

     occupation numbers 
     1.0000   1.0000   1.0000   1.0000   0.0008   0.0000   0.0000   0.0000

          k =-0.1250-0.5052-0.0731 (   834 PWs)   bands (ev):

     1.2661   4.4833   6.7504   9.7294  10.0520  10.9558  13.1727  16.0875

     occupation numbers 
     1.0000   1.0000   1.0000   1.0000   1.0000   0.0007   0.0000   0.0000

          k =-0.1250-0.3608 0.0000 (   829 PWs)   bands (ev):

    -1.2698   5.2972   6.4925   8.4011  11.5609  14.5577  15.6672  17.4021

     occupation numbers 
     1.0000   1.0000   1.0000   1.0000   0.0000   0.0000   0.0000   0.0000

          k =-0.1250-0.3608 0.0731 (   826 PWs)   bands (ev):

    -1.1857   4.3028   7.6728   8.4983  11.6276  13.7362  16.0712  17.3789

     occupation numbers 
     1.0000   1.0000   1.0000   1.0000   0.0000   0.0000   0.0000   0.0000

          k =-0.1250-0.3608 0.1463 (   828 PWs)   bands (ev):

    -0.9498   3.1148   8.6277   9.5488  11.8307  12.6575  15.5307  17.9549

     occupation numbers 
     1.0000   1.0000   1.0000   1.0000   0.0000   0.0000   0.0000   0.0000

          k =-0.1250-0.3608 0.2194 (   831 PWs)   bands (ev):

    -0.6341   2.2091   8.9317  11.2699  11.9276  12.2005  14.7494  16.5344

     occupation numbers 
     1.0000   1.0000   1.0000   0.0000   0.0000   0.0000   0.0000   0.0000

          k =-0.1250-0.3608-0.2925 (   834 PWs)   bands (ev):

    -0.4573   1.8351   9.0896  11.3715  12.0130  13.5034  13.9172  15.3328

     occupation numbers 
     1.0000   1.0000   1.0000   0.0000   0.0000   0.0000   0.0000   0.0000

          k =-0.1250-0.3608-0.2194 (   831 PWs)   bands (ev):

    -0.6355   2.2143   8.9352  11.2002  11.7779  12.3712  14.9186  16.4241

     occupation numbers 
     1.0000   1.0000   1.0000   0.0000   0.0000   0.0000   0.0000   0.0000

          k =-0.1250-0.3608-0.1463 (   828 PWs)   bands (ev):

    -0.9510   3.1241   8.6260   9.4957  11.8659  12.6124  15.7412  17.7607

     occupation numbers 
     1.0000   1.0000   1.0000   1.0000   0.0000   0.0000   0.0000   0.0000

          k =-0.1250-0.3608-0.0731 (   826 PWs)   bands (ev):

    -1.1864   4.3163   7.6379   8.5023  11.6430  13.6672  16.5023  16.9907

     occupation numbers 
     1.0000   1.0000   1.0000   1.0000   0.0000   0.0000   0.0000   0.0000

          k =-0.1250-0.2165 0.0000 (   819 PWs)   bands (ev):

    -2.9229   3.6993   4.9086  12.6322  13.4147  18.5771  18.7064  19.2899

     occupation numbers 
     1.0000   1.0000   1.0000   0.0000   0.0000   0.0000   0.0000   0.0000

          k =-0.1250-0.2165 0.0731 (   820 PWs)   bands (ev):

    -2.8380   2.6920   6.1270  12.6840  13.4895  17.7662  18.1921  19.4096

     occupation numbers 
     1.0000   1.0000   1.0000   0.0000   0.0000   0.0000   0.0000   0.0000

          k =-0.1250-0.2165 0.1463 (   819 PWs)   bands (ev):

    -2.5995   1.4885   7.9634  12.8427  13.6939  16.7109  17.1802  17.6900

     occupation numbers 
     1.0000   1.0000   1.0000   0.0000   0.0000   0.0000   0.0000   0.0000

          k =-0.1250-0.2165 0.2194 (   824 PWs)   bands (ev):

    -2.2793   0.5708   9.9682  12.9752  13.9263  15.1023  16.0577  16.7318

     occupation numbers 
     1.0000   1.0000   1.0000   0.0000   0.0000   0.0000   0.0000   0.0000

          k =-0.1250-0.2165-0.2925 (   820 PWs)   bands (ev):

    -2.0989   0.1903  11.4891  12.7501  13.6012  14.3016  15.7379  16.4134

     occupation numbers 
     1.0000   1.0000   0.0000   0.0000   0.0000   0.0000   0.0000   0.0000

          k =-0.1250-0.2165-0.2194 (   824 PWs)   bands (ev):

    -2.2800   0.5736   9.9069  13.2243  13.8323  15.0023  16.0505  16.7288

     occupation numbers 
     1.0000   1.0000   1.0000   0.0000   0.0000   0.0000   0.0000   0.0000

          k =-0.1250-0.2165-0.1463 (   819 PWs)   bands (ev):

    -2.6002   1.4935   7.9312  12.9353  13.6730  16.8098  17.0263  17.6592

     occupation numbers 
     1.0000   1.0000   1.0000   0.0000   0.0000   0.0000   0.0000   0.0000

          k =-0.1250-0.2165-0.0731 (   820 PWs)   bands (ev):

    -2.8384   2.6993   6.1086  12.7193  13.4836  17.8141  18.1636  19.2640

     occupation numbers 
     1.0000   1.0000   1.0000   0.0000   0.0000   0.0000   0.0000   0.0000

     the Fermi energy is    10.7698 ev

!    total energy              =     -15.76679106 Ry
     estimated scf accuracy    <       0.01476099 Ry
     smearing contrib. (-TS)   =      -0.00013772 Ry
     internal energy E=F+TS    =     -15.76665334 Ry

     The total energy is F=E-TS. E is the sum of the following terms:
     one-electron contribution =       8.77800208 Ry
     hartree contribution      =       0.27151448 Ry
     xc contribution           =      -4.92991172 Ry
     ewald contribution        =     -19.88625818 Ry

     convergence has been achieved in   1 iterations

     Forces acting on atoms (cartesian axes, Ry/au):

     atom    1 type  1   force =     0.00014935    0.00366277   -0.04807909
     atom    2 type  1   force =    -0.00014935   -0.00366277    0.04807909
     The non-local contrib.  to forces
     atom    1 type  1   force =    -0.00207640   -0.03844962   -0.14409018
     atom    2 type  1   force =     0.00206368    0.03845539    0.14408429
     The ionic contribution  to forces
     atom    1 type  1   force =    -0.00231533   -0.04635215   -0.92258733
     atom    2 type  1   force =     0.00231533    0.04635215    0.92258733
     The local contribution  to forces
     atom    1 type  1   force =     0.00468578    0.09192964    1.12916306
     atom    2 type  1   force =    -0.00466808   -0.09193369   -1.12915604
     The core correction contribution to forces
     atom    1 type  1   force =     0.00000000    0.00000000    0.00000000
     atom    2 type  1   force =     0.00000000    0.00000000    0.00000000
     The Hubbard contrib.    to forces
     atom    1 type  1   force =     0.00000000    0.00000000    0.00000000
     atom    2 type  1   force =     0.00000000    0.00000000    0.00000000
     The SCF correction term to forces
     atom    1 type  1   force =    -0.00014248   -0.00346422   -0.11056450
     atom    2 type  1   force =     0.00014194    0.00346425    0.11056364

     Total force =     0.068191     Total SCF correction =     0.156438
     SCF correction compared to forces is large: reduce conv_thr to get better values


     Computing stress (Cartesian axis) and pressure

          total   stress  (Ry/bohr**3)                   (kbar)     P=        1.38
  -0.00023590   0.00001233   0.00000609          -34.70        1.81        0.90
   0.00001233  -0.00038874   0.00002520            1.81      -57.19        3.71
   0.00000609   0.00002520   0.00065282            0.90        3.71       96.03

     kinetic stress (kbar)   3204.68      3.16      0.91
                                3.16   3173.17     -1.28
                                0.91     -1.28   3335.77

     local   stress (kbar)  -1131.93     20.37     -5.42
                               20.37  -1376.82   -100.78
                               -5.42   -100.78   -273.36

     nonloc. stress (kbar)   3777.16     -1.03      1.87
                               -1.03   3793.56     33.34
                                1.87     33.34   3801.31

     hartree stress (kbar)    164.96     -1.56     -0.01
                               -1.56    182.48     -0.11
                               -0.01     -0.11   -141.37

     exc-cor stress (kbar)  -1137.48      0.00      0.00
                                0.00  -1137.48      0.00
                                0.00      0.00  -1137.48

     corecor stress (kbar)      0.00      0.00      0.00
                                0.00      0.00      0.00
                                0.00      0.00      0.00

     ewald   stress (kbar)  -4912.09    -19.13      3.55
                              -19.13  -4692.09     72.54
                                3.55     72.54  -5488.84

     hubbard stress (kbar)      0.00      0.00      0.00
                                0.00      0.00      0.00
                                0.00      0.00      0.00

     DFT-D   stress (kbar)      0.00      0.00      0.00
                                0.00      0.00      0.00
                                0.00      0.00      0.00

     XDM     stress (kbar)      0.00      0.00      0.00
                                0.00      0.00      0.00
                                0.00      0.00      0.00

     dft-nl  stress (kbar)      0.00      0.00      0.00
                                0.00      0.00      0.00
                                0.00      0.00      0.00

     TS-vdW  stress (kbar)      0.00      0.00      0.00
                                0.00      0.00      0.00
                                0.00      0.00      0.00

     MDB     stress (kbar)      0.00      0.00      0.00
                                0.00      0.00      0.00
                                0.00      0.00      0.00

     3D-RISM stress (kbar)      0.00      0.00      0.00
                                0.00      0.00      0.00
                                0.00      0.00      0.00


     Writing all to output data dir ../tmp/Si/Si.save/ :
     XML data file, charge density, pseudopotentials, collected wavefunctions

     init_run     :      3.26s CPU      3.44s WALL (       1 calls)
     electrons    :     15.42s CPU     15.81s WALL (       1 calls)
     forces       :      0.16s CPU      0.16s WALL (       1 calls)
     stress       :      1.86s CPU      1.87s WALL (       1 calls)

     Called by init_run:
     wfcinit      :      2.94s CPU      3.11s WALL (       1 calls)
     wfcinit:atom :      0.08s CPU      0.08s WALL (     512 calls)
     wfcinit:wfcr :      2.49s CPU      2.63s WALL (     512 calls)
     potinit      :      0.01s CPU      0.01s WALL (       1 calls)
     hinit0       :      0.26s CPU      0.26s WALL (       1 calls)

     Called by electrons:
     c_bands      :     13.72s CPU     14.08s WALL (       2 calls)
     sum_band     :      1.70s CPU      1.72s WALL (       2 calls)
     v_of_rho     :      0.00s CPU      0.00s WALL (       2 calls)
     v_h          :      0.00s CPU      0.00s WALL (       2 calls)
     v_xc         :      0.00s CPU      0.00s WALL (       2 calls)
     mix_rho      :      0.00s CPU      0.00s WALL (       2 calls)

     Called by c_bands:
     init_us_2    :      0.52s CPU      0.54s WALL (    3584 calls)
     cegterg      :     13.40s CPU     13.74s WALL (    1024 calls)

     Called by sum_band:
     sum_band:wei :      0.00s CPU      0.00s WALL (       2 calls)
     sum_band:loo :      1.69s CPU      1.71s WALL (       2 calls)
     sum_band:buf :      0.02s CPU      0.02s WALL (    1024 calls)
     sum_band:ini :      0.14s CPU      0.14s WALL (    1024 calls)

     Called by *egterg:
     cdiaghg      :      0.62s CPU      0.65s WALL (    4283 calls)
     cegterg:over :      0.28s CPU      0.29s WALL (    3771 calls)
     cegterg:upda :      0.22s CPU      0.23s WALL (    3771 calls)
     cegterg:last :      0.24s CPU      0.25s WALL (    2764 calls)
     h_psi        :     14.18s CPU     14.61s WALL (    5307 calls)
     g_psi        :      0.09s CPU      0.09s WALL (    3771 calls)

     Called by h_psi:
     h_psi:calbec :      0.24s CPU      0.25s WALL (    5307 calls)
     vloc_psi     :     13.64s CPU     14.04s WALL (    5307 calls)
     add_vuspsi   :      0.18s CPU      0.18s WALL (    5307 calls)

     General routines
     calbec       :      0.31s CPU      0.32s WALL (    7867 calls)
     fft          :      0.23s CPU      0.24s WALL (      11 calls)
     ffts         :      0.00s CPU      0.00s WALL (       2 calls)
     fftw         :     13.08s CPU     13.44s WALL (   69204 calls)


     PWSCF        :     20.79s CPU     21.47s WALL


   This run was terminated on:  15:22:36   7May2024            

=------------------------------------------------------------------------------=
   JOB DONE.
=------------------------------------------------------------------------------=
