
     Program PWSCF v.7.3.1 starts on  7May2024 at 15:22:48 

     This program is part of the open-source Quantum ESPRESSO suite
     for quantum simulation of materials; please cite
         "P. Giannozzi et al., J. Phys.:Condens. Matter 21 395502 (2009);
         "P. Giannozzi et al., J. Phys.:Condens. Matter 29 465901 (2017);
         "P. Giannozzi et al., J. Chem. Phys. 152 154105 (2020);
          URL http://www.quantum-espresso.org", 
     in publications or presentations arising from this work. More details at
     http://www.quantum-espresso.org/quote

     Serial version
     5794 MiB available memory on the printing compute node when the environment starts

     Reading input from Si5.pw.in

     Current dimensions of program PWSCF are:
     Max number of different atomic species (ntypx) = 10
     Max number of k-points (npk) =  40000
     Max angular momentum in pseudopotentials (lmaxx) =  4


     G-vector sticks info
     --------------------
     sticks:   dense  smooth     PW     G-vecs:    dense   smooth      PW
     Sum         283     283    109                 6629     6629    1449

     Using Slab Decomposition



     bravais-lattice index     =            0
     lattice parameter (alat)  =       5.0781  a.u.
     unit-cell volume          =     193.8226 (a.u.)^3
     number of atoms/cell      =            2
     number of atomic types    =            1
     number of electrons       =         8.00
     number of Kohn-Sham states=            8
     kinetic-energy cutoff     =      40.0000  Ry
     charge density cutoff     =     160.0000  Ry
     scf convergence threshold =      2.0E-02
     mixing beta               =       0.1000
     number of iterations used =            8  plain     mixing
     Exchange-correlation=  SLA  PZ   NOGX NOGC
                           (   1   1   0   0   0   0   0)

     celldm(1)=   5.078053  celldm(2)=   0.000000  celldm(3)=   0.000000
     celldm(4)=   0.000000  celldm(5)=   0.000000  celldm(6)=   0.000000

     crystal axes: (cart. coord. in units of alat)
               a(1) = (   1.000000   0.000000   0.000000 )  
               a(2) = (  -0.500000   0.866025   0.000000 )  
               a(3) = (   0.000000   0.000000   1.709157 )  

     reciprocal axes: (cart. coord. in units 2 pi/alat)
               b(1) = (  1.000000  0.577350 -0.000000 )  
               b(2) = (  0.000000  1.154701  0.000000 )  
               b(3) = (  0.000000 -0.000000  0.585084 )  


     PseudoPot. # 1 for Si read from file:
     ../pseudo/Si.pz-vbc.UPF
     MD5 check sum: 6dfa03ddd5817404712e03e4d12deb78
     Pseudo is Norm-conserving, Zval =  4.0
     Generated by new atomic code, or converted to UPF format
     Using radial grid of  431 points,  2 beta functions with: 
                l(1) =   0
                l(2) =   1

     atomic species   valence    mass     pseudopotential
     Si                4.00    28.08600     Si( 1.00)

     No symmetry found


                                    s                        frac. trans.

      isym =  1     identity                                     

 cryst.   s( 1) = (     1          0          0      )
                  (     0          1          0      )
                  (     0          0          1      )

 cart.    s( 1) = (  1.0000000  0.0000000  0.0000000 )
                  (  0.0000000  1.0000000  0.0000000 )
                  (  0.0000000  0.0000000  1.0000000 )


   Cartesian axes

     site n.     atom                  positions (alat units)
         1        Si     tau(   1) = (   0.0314632   0.6205066   0.3423059  )
         2        Si     tau(   2) = (   0.4764496   0.3672700   1.2516033  )

   Crystallographic axes

     site n.     atom                  positions (cryst. coord.)
         1        Si     tau(   1) = (  0.3897129  0.7164993  0.2002776  )
         2        Si     tau(   2) = (  0.6884930  0.4240868  0.7322925  )

     number of k points=   512  Fermi-Dirac smearing, width (Ry)=  0.0019
                       cart. coord. in units 2pi/alat
        k(    1) = (   0.0000000   0.0000000   0.0000000), wk =   0.0039062
        k(    2) = (   0.0000000   0.0000000   0.0731354), wk =   0.0039062
        k(    3) = (   0.0000000   0.0000000   0.1462709), wk =   0.0039062
        k(    4) = (   0.0000000   0.0000000   0.2194063), wk =   0.0039062
        k(    5) = (   0.0000000   0.0000000  -0.2925418), wk =   0.0039062
        k(    6) = (   0.0000000   0.0000000  -0.2194063), wk =   0.0039062
        k(    7) = (   0.0000000   0.0000000  -0.1462709), wk =   0.0039062
        k(    8) = (   0.0000000   0.0000000  -0.0731354), wk =   0.0039062
        k(    9) = (   0.0000000   0.1443376   0.0000000), wk =   0.0039062
        k(   10) = (   0.0000000   0.1443376   0.0731354), wk =   0.0039062
        k(   11) = (   0.0000000   0.1443376   0.1462709), wk =   0.0039062
        k(   12) = (   0.0000000   0.1443376   0.2194063), wk =   0.0039062
        k(   13) = (   0.0000000   0.1443376  -0.2925418), wk =   0.0039062
        k(   14) = (   0.0000000   0.1443376  -0.2194063), wk =   0.0039062
        k(   15) = (   0.0000000   0.1443376  -0.1462709), wk =   0.0039062
        k(   16) = (   0.0000000   0.1443376  -0.0731354), wk =   0.0039062
        k(   17) = (   0.0000000   0.2886751   0.0000000), wk =   0.0039062
        k(   18) = (   0.0000000   0.2886751   0.0731354), wk =   0.0039062
        k(   19) = (   0.0000000   0.2886751   0.1462709), wk =   0.0039062
        k(   20) = (   0.0000000   0.2886751   0.2194063), wk =   0.0039062
        k(   21) = (   0.0000000   0.2886751  -0.2925418), wk =   0.0039062
        k(   22) = (   0.0000000   0.2886751  -0.2194063), wk =   0.0039062
        k(   23) = (   0.0000000   0.2886751  -0.1462709), wk =   0.0039062
        k(   24) = (   0.0000000   0.2886751  -0.0731354), wk =   0.0039062
        k(   25) = (   0.0000000   0.4330127   0.0000000), wk =   0.0039062
        k(   26) = (   0.0000000   0.4330127   0.0731354), wk =   0.0039062
        k(   27) = (   0.0000000   0.4330127   0.1462709), wk =   0.0039062
        k(   28) = (   0.0000000   0.4330127   0.2194063), wk =   0.0039062
        k(   29) = (   0.0000000   0.4330127  -0.2925418), wk =   0.0039062
        k(   30) = (   0.0000000   0.4330127  -0.2194063), wk =   0.0039062
        k(   31) = (   0.0000000   0.4330127  -0.1462709), wk =   0.0039062
        k(   32) = (   0.0000000   0.4330127  -0.0731354), wk =   0.0039062
        k(   33) = (   0.0000000  -0.5773503   0.0000000), wk =   0.0039062
        k(   34) = (   0.0000000  -0.5773503   0.0731354), wk =   0.0039062
        k(   35) = (   0.0000000  -0.5773503   0.1462709), wk =   0.0039062
        k(   36) = (   0.0000000  -0.5773503   0.2194063), wk =   0.0039062
        k(   37) = (   0.0000000  -0.5773503  -0.2925418), wk =   0.0039062
        k(   38) = (   0.0000000  -0.5773503  -0.2194063), wk =   0.0039062
        k(   39) = (   0.0000000  -0.5773503  -0.1462709), wk =   0.0039062
        k(   40) = (   0.0000000  -0.5773503  -0.0731354), wk =   0.0039062
        k(   41) = (   0.0000000  -0.4330127   0.0000000), wk =   0.0039062
        k(   42) = (   0.0000000  -0.4330127   0.0731354), wk =   0.0039062
        k(   43) = (   0.0000000  -0.4330127   0.1462709), wk =   0.0039062
        k(   44) = (   0.0000000  -0.4330127   0.2194063), wk =   0.0039062
        k(   45) = (   0.0000000  -0.4330127  -0.2925418), wk =   0.0039062
        k(   46) = (   0.0000000  -0.4330127  -0.2194063), wk =   0.0039062
        k(   47) = (   0.0000000  -0.4330127  -0.1462709), wk =   0.0039062
        k(   48) = (   0.0000000  -0.4330127  -0.0731354), wk =   0.0039062
        k(   49) = (   0.0000000  -0.2886751   0.0000000), wk =   0.0039062
        k(   50) = (   0.0000000  -0.2886751   0.0731354), wk =   0.0039062
        k(   51) = (   0.0000000  -0.2886751   0.1462709), wk =   0.0039062
        k(   52) = (   0.0000000  -0.2886751   0.2194063), wk =   0.0039062
        k(   53) = (   0.0000000  -0.2886751  -0.2925418), wk =   0.0039062
        k(   54) = (   0.0000000  -0.2886751  -0.2194063), wk =   0.0039062
        k(   55) = (   0.0000000  -0.2886751  -0.1462709), wk =   0.0039062
        k(   56) = (   0.0000000  -0.2886751  -0.0731354), wk =   0.0039062
        k(   57) = (   0.0000000  -0.1443376   0.0000000), wk =   0.0039062
        k(   58) = (   0.0000000  -0.1443376   0.0731354), wk =   0.0039062
        k(   59) = (   0.0000000  -0.1443376   0.1462709), wk =   0.0039062
        k(   60) = (   0.0000000  -0.1443376   0.2194063), wk =   0.0039062
        k(   61) = (   0.0000000  -0.1443376  -0.2925418), wk =   0.0039062
        k(   62) = (   0.0000000  -0.1443376  -0.2194063), wk =   0.0039062
        k(   63) = (   0.0000000  -0.1443376  -0.1462709), wk =   0.0039062
        k(   64) = (   0.0000000  -0.1443376  -0.0731354), wk =   0.0039062
        k(   65) = (   0.1250000   0.0721688   0.0000000), wk =   0.0039062
        k(   66) = (   0.1250000   0.0721688   0.0731354), wk =   0.0039062
        k(   67) = (   0.1250000   0.0721688   0.1462709), wk =   0.0039062
        k(   68) = (   0.1250000   0.0721688   0.2194063), wk =   0.0039062
        k(   69) = (   0.1250000   0.0721688  -0.2925418), wk =   0.0039062
        k(   70) = (   0.1250000   0.0721688  -0.2194063), wk =   0.0039062
        k(   71) = (   0.1250000   0.0721688  -0.1462709), wk =   0.0039062
        k(   72) = (   0.1250000   0.0721688  -0.0731354), wk =   0.0039062
        k(   73) = (   0.1250000   0.2165064   0.0000000), wk =   0.0039062
        k(   74) = (   0.1250000   0.2165064   0.0731354), wk =   0.0039062
        k(   75) = (   0.1250000   0.2165064   0.1462709), wk =   0.0039062
        k(   76) = (   0.1250000   0.2165064   0.2194063), wk =   0.0039062
        k(   77) = (   0.1250000   0.2165064  -0.2925418), wk =   0.0039062
        k(   78) = (   0.1250000   0.2165064  -0.2194063), wk =   0.0039062
        k(   79) = (   0.1250000   0.2165064  -0.1462709), wk =   0.0039062
        k(   80) = (   0.1250000   0.2165064  -0.0731354), wk =   0.0039062
        k(   81) = (   0.1250000   0.3608439   0.0000000), wk =   0.0039062
        k(   82) = (   0.1250000   0.3608439   0.0731354), wk =   0.0039062
        k(   83) = (   0.1250000   0.3608439   0.1462709), wk =   0.0039062
        k(   84) = (   0.1250000   0.3608439   0.2194063), wk =   0.0039062
        k(   85) = (   0.1250000   0.3608439  -0.2925418), wk =   0.0039062
        k(   86) = (   0.1250000   0.3608439  -0.2194063), wk =   0.0039062
        k(   87) = (   0.1250000   0.3608439  -0.1462709), wk =   0.0039062
        k(   88) = (   0.1250000   0.3608439  -0.0731354), wk =   0.0039062
        k(   89) = (   0.1250000   0.5051815   0.0000000), wk =   0.0039062
        k(   90) = (   0.1250000   0.5051815   0.0731354), wk =   0.0039062
        k(   91) = (   0.1250000   0.5051815   0.1462709), wk =   0.0039062
        k(   92) = (   0.1250000   0.5051815   0.2194063), wk =   0.0039062
        k(   93) = (   0.1250000   0.5051815  -0.2925418), wk =   0.0039062
        k(   94) = (   0.1250000   0.5051815  -0.2194063), wk =   0.0039062
        k(   95) = (   0.1250000   0.5051815  -0.1462709), wk =   0.0039062
        k(   96) = (   0.1250000   0.5051815  -0.0731354), wk =   0.0039062
        k(   97) = (   0.1250000  -0.5051815   0.0000000), wk =   0.0039062
        k(   98) = (   0.1250000  -0.5051815   0.0731354), wk =   0.0039062
        k(   99) = (   0.1250000  -0.5051815   0.1462709), wk =   0.0039062
        k(  100) = (   0.1250000  -0.5051815   0.2194063), wk =   0.0039062
        k(  101) = (   0.1250000  -0.5051815  -0.2925418), wk =   0.0039062
        k(  102) = (   0.1250000  -0.5051815  -0.2194063), wk =   0.0039062
        k(  103) = (   0.1250000  -0.5051815  -0.1462709), wk =   0.0039062
        k(  104) = (   0.1250000  -0.5051815  -0.0731354), wk =   0.0039062
        k(  105) = (   0.1250000  -0.3608439   0.0000000), wk =   0.0039062
        k(  106) = (   0.1250000  -0.3608439   0.0731354), wk =   0.0039062
        k(  107) = (   0.1250000  -0.3608439   0.1462709), wk =   0.0039062
        k(  108) = (   0.1250000  -0.3608439   0.2194063), wk =   0.0039062
        k(  109) = (   0.1250000  -0.3608439  -0.2925418), wk =   0.0039062
        k(  110) = (   0.1250000  -0.3608439  -0.2194063), wk =   0.0039062
        k(  111) = (   0.1250000  -0.3608439  -0.1462709), wk =   0.0039062
        k(  112) = (   0.1250000  -0.3608439  -0.0731354), wk =   0.0039062
        k(  113) = (   0.1250000  -0.2165064   0.0000000), wk =   0.0039062
        k(  114) = (   0.1250000  -0.2165064   0.0731354), wk =   0.0039062
        k(  115) = (   0.1250000  -0.2165064   0.1462709), wk =   0.0039062
        k(  116) = (   0.1250000  -0.2165064   0.2194063), wk =   0.0039062
        k(  117) = (   0.1250000  -0.2165064  -0.2925418), wk =   0.0039062
        k(  118) = (   0.1250000  -0.2165064  -0.2194063), wk =   0.0039062
        k(  119) = (   0.1250000  -0.2165064  -0.1462709), wk =   0.0039062
        k(  120) = (   0.1250000  -0.2165064  -0.0731354), wk =   0.0039062
        k(  121) = (   0.1250000  -0.0721688   0.0000000), wk =   0.0039062
        k(  122) = (   0.1250000  -0.0721688   0.0731354), wk =   0.0039062
        k(  123) = (   0.1250000  -0.0721688   0.1462709), wk =   0.0039062
        k(  124) = (   0.1250000  -0.0721688   0.2194063), wk =   0.0039062
        k(  125) = (   0.1250000  -0.0721688  -0.2925418), wk =   0.0039062
        k(  126) = (   0.1250000  -0.0721688  -0.2194063), wk =   0.0039062
        k(  127) = (   0.1250000  -0.0721688  -0.1462709), wk =   0.0039062
        k(  128) = (   0.1250000  -0.0721688  -0.0731354), wk =   0.0039062
        k(  129) = (   0.2500000   0.1443376   0.0000000), wk =   0.0039062
        k(  130) = (   0.2500000   0.1443376   0.0731354), wk =   0.0039062
        k(  131) = (   0.2500000   0.1443376   0.1462709), wk =   0.0039062
        k(  132) = (   0.2500000   0.1443376   0.2194063), wk =   0.0039062
        k(  133) = (   0.2500000   0.1443376  -0.2925418), wk =   0.0039062
        k(  134) = (   0.2500000   0.1443376  -0.2194063), wk =   0.0039062
        k(  135) = (   0.2500000   0.1443376  -0.1462709), wk =   0.0039062
        k(  136) = (   0.2500000   0.1443376  -0.0731354), wk =   0.0039062
        k(  137) = (   0.2500000   0.2886751   0.0000000), wk =   0.0039062
        k(  138) = (   0.2500000   0.2886751   0.0731354), wk =   0.0039062
        k(  139) = (   0.2500000   0.2886751   0.1462709), wk =   0.0039062
        k(  140) = (   0.2500000   0.2886751   0.2194063), wk =   0.0039062
        k(  141) = (   0.2500000   0.2886751  -0.2925418), wk =   0.0039062
        k(  142) = (   0.2500000   0.2886751  -0.2194063), wk =   0.0039062
        k(  143) = (   0.2500000   0.2886751  -0.1462709), wk =   0.0039062
        k(  144) = (   0.2500000   0.2886751  -0.0731354), wk =   0.0039062
        k(  145) = (   0.2500000   0.4330127   0.0000000), wk =   0.0039062
        k(  146) = (   0.2500000   0.4330127   0.0731354), wk =   0.0039062
        k(  147) = (   0.2500000   0.4330127   0.1462709), wk =   0.0039062
        k(  148) = (   0.2500000   0.4330127   0.2194063), wk =   0.0039062
        k(  149) = (   0.2500000   0.4330127  -0.2925418), wk =   0.0039062
        k(  150) = (   0.2500000   0.4330127  -0.2194063), wk =   0.0039062
        k(  151) = (   0.2500000   0.4330127  -0.1462709), wk =   0.0039062
        k(  152) = (   0.2500000   0.4330127  -0.0731354), wk =   0.0039062
        k(  153) = (   0.2500000   0.5773503   0.0000000), wk =   0.0039062
        k(  154) = (   0.2500000   0.5773503   0.0731354), wk =   0.0039062
        k(  155) = (   0.2500000   0.5773503   0.1462709), wk =   0.0039062
        k(  156) = (   0.2500000   0.5773503   0.2194063), wk =   0.0039062
        k(  157) = (   0.2500000   0.5773503  -0.2925418), wk =   0.0039062
        k(  158) = (   0.2500000   0.5773503  -0.2194063), wk =   0.0039062
        k(  159) = (   0.2500000   0.5773503  -0.1462709), wk =   0.0039062
        k(  160) = (   0.2500000   0.5773503  -0.0731354), wk =   0.0039062
        k(  161) = (   0.2500000  -0.4330127   0.0000000), wk =   0.0039062
        k(  162) = (   0.2500000  -0.4330127   0.0731354), wk =   0.0039062
        k(  163) = (   0.2500000  -0.4330127   0.1462709), wk =   0.0039062
        k(  164) = (   0.2500000  -0.4330127   0.2194063), wk =   0.0039062
        k(  165) = (   0.2500000  -0.4330127  -0.2925418), wk =   0.0039062
        k(  166) = (   0.2500000  -0.4330127  -0.2194063), wk =   0.0039062
        k(  167) = (   0.2500000  -0.4330127  -0.1462709), wk =   0.0039062
        k(  168) = (   0.2500000  -0.4330127  -0.0731354), wk =   0.0039062
        k(  169) = (   0.2500000  -0.2886751   0.0000000), wk =   0.0039062
        k(  170) = (   0.2500000  -0.2886751   0.0731354), wk =   0.0039062
        k(  171) = (   0.2500000  -0.2886751   0.1462709), wk =   0.0039062
        k(  172) = (   0.2500000  -0.2886751   0.2194063), wk =   0.0039062
        k(  173) = (   0.2500000  -0.2886751  -0.2925418), wk =   0.0039062
        k(  174) = (   0.2500000  -0.2886751  -0.2194063), wk =   0.0039062
        k(  175) = (   0.2500000  -0.2886751  -0.1462709), wk =   0.0039062
        k(  176) = (   0.2500000  -0.2886751  -0.0731354), wk =   0.0039062
        k(  177) = (   0.2500000  -0.1443376   0.0000000), wk =   0.0039062
        k(  178) = (   0.2500000  -0.1443376   0.0731354), wk =   0.0039062
        k(  179) = (   0.2500000  -0.1443376   0.1462709), wk =   0.0039062
        k(  180) = (   0.2500000  -0.1443376   0.2194063), wk =   0.0039062
        k(  181) = (   0.2500000  -0.1443376  -0.2925418), wk =   0.0039062
        k(  182) = (   0.2500000  -0.1443376  -0.2194063), wk =   0.0039062
        k(  183) = (   0.2500000  -0.1443376  -0.1462709), wk =   0.0039062
        k(  184) = (   0.2500000  -0.1443376  -0.0731354), wk =   0.0039062
        k(  185) = (   0.2500000   0.0000000   0.0000000), wk =   0.0039062
        k(  186) = (   0.2500000   0.0000000   0.0731354), wk =   0.0039062
        k(  187) = (   0.2500000   0.0000000   0.1462709), wk =   0.0039062
        k(  188) = (   0.2500000   0.0000000   0.2194063), wk =   0.0039062
        k(  189) = (   0.2500000   0.0000000  -0.2925418), wk =   0.0039062
        k(  190) = (   0.2500000   0.0000000  -0.2194063), wk =   0.0039062
        k(  191) = (   0.2500000   0.0000000  -0.1462709), wk =   0.0039062
        k(  192) = (   0.2500000   0.0000000  -0.0731354), wk =   0.0039062
        k(  193) = (   0.3750000   0.2165064   0.0000000), wk =   0.0039062
        k(  194) = (   0.3750000   0.2165064   0.0731354), wk =   0.0039062
        k(  195) = (   0.3750000   0.2165064   0.1462709), wk =   0.0039062
        k(  196) = (   0.3750000   0.2165064   0.2194063), wk =   0.0039062
        k(  197) = (   0.3750000   0.2165064  -0.2925418), wk =   0.0039062
        k(  198) = (   0.3750000   0.2165064  -0.2194063), wk =   0.0039062
        k(  199) = (   0.3750000   0.2165064  -0.1462709), wk =   0.0039062
        k(  200) = (   0.3750000   0.2165064  -0.0731354), wk =   0.0039062
        k(  201) = (   0.3750000   0.3608439   0.0000000), wk =   0.0039062
        k(  202) = (   0.3750000   0.3608439   0.0731354), wk =   0.0039062
        k(  203) = (   0.3750000   0.3608439   0.1462709), wk =   0.0039062
        k(  204) = (   0.3750000   0.3608439   0.2194063), wk =   0.0039062
        k(  205) = (   0.3750000   0.3608439  -0.2925418), wk =   0.0039062
        k(  206) = (   0.3750000   0.3608439  -0.2194063), wk =   0.0039062
        k(  207) = (   0.3750000   0.3608439  -0.1462709), wk =   0.0039062
        k(  208) = (   0.3750000   0.3608439  -0.0731354), wk =   0.0039062
        k(  209) = (   0.3750000   0.5051815   0.0000000), wk =   0.0039062
        k(  210) = (   0.3750000   0.5051815   0.0731354), wk =   0.0039062
        k(  211) = (   0.3750000   0.5051815   0.1462709), wk =   0.0039062
        k(  212) = (   0.3750000   0.5051815   0.2194063), wk =   0.0039062
        k(  213) = (   0.3750000   0.5051815  -0.2925418), wk =   0.0039062
        k(  214) = (   0.3750000   0.5051815  -0.2194063), wk =   0.0039062
        k(  215) = (   0.3750000   0.5051815  -0.1462709), wk =   0.0039062
        k(  216) = (   0.3750000   0.5051815  -0.0731354), wk =   0.0039062
        k(  217) = (   0.3750000   0.6495191   0.0000000), wk =   0.0039062
        k(  218) = (   0.3750000   0.6495191   0.0731354), wk =   0.0039062
        k(  219) = (   0.3750000   0.6495191   0.1462709), wk =   0.0039062
        k(  220) = (   0.3750000   0.6495191   0.2194063), wk =   0.0039062
        k(  221) = (   0.3750000   0.6495191  -0.2925418), wk =   0.0039062
        k(  222) = (   0.3750000   0.6495191  -0.2194063), wk =   0.0039062
        k(  223) = (   0.3750000   0.6495191  -0.1462709), wk =   0.0039062
        k(  224) = (   0.3750000   0.6495191  -0.0731354), wk =   0.0039062
        k(  225) = (   0.3750000  -0.3608439   0.0000000), wk =   0.0039062
        k(  226) = (   0.3750000  -0.3608439   0.0731354), wk =   0.0039062
        k(  227) = (   0.3750000  -0.3608439   0.1462709), wk =   0.0039062
        k(  228) = (   0.3750000  -0.3608439   0.2194063), wk =   0.0039062
        k(  229) = (   0.3750000  -0.3608439  -0.2925418), wk =   0.0039062
        k(  230) = (   0.3750000  -0.3608439  -0.2194063), wk =   0.0039062
        k(  231) = (   0.3750000  -0.3608439  -0.1462709), wk =   0.0039062
        k(  232) = (   0.3750000  -0.3608439  -0.0731354), wk =   0.0039062
        k(  233) = (   0.3750000  -0.2165064   0.0000000), wk =   0.0039062
        k(  234) = (   0.3750000  -0.2165064   0.0731354), wk =   0.0039062
        k(  235) = (   0.3750000  -0.2165064   0.1462709), wk =   0.0039062
        k(  236) = (   0.3750000  -0.2165064   0.2194063), wk =   0.0039062
        k(  237) = (   0.3750000  -0.2165064  -0.2925418), wk =   0.0039062
        k(  238) = (   0.3750000  -0.2165064  -0.2194063), wk =   0.0039062
        k(  239) = (   0.3750000  -0.2165064  -0.1462709), wk =   0.0039062
        k(  240) = (   0.3750000  -0.2165064  -0.0731354), wk =   0.0039062
        k(  241) = (   0.3750000  -0.0721688   0.0000000), wk =   0.0039062
        k(  242) = (   0.3750000  -0.0721688   0.0731354), wk =   0.0039062
        k(  243) = (   0.3750000  -0.0721688   0.1462709), wk =   0.0039062
        k(  244) = (   0.3750000  -0.0721688   0.2194063), wk =   0.0039062
        k(  245) = (   0.3750000  -0.0721688  -0.2925418), wk =   0.0039062
        k(  246) = (   0.3750000  -0.0721688  -0.2194063), wk =   0.0039062
        k(  247) = (   0.3750000  -0.0721688  -0.1462709), wk =   0.0039062
        k(  248) = (   0.3750000  -0.0721688  -0.0731354), wk =   0.0039062
        k(  249) = (   0.3750000   0.0721688   0.0000000), wk =   0.0039062
        k(  250) = (   0.3750000   0.0721688   0.0731354), wk =   0.0039062
        k(  251) = (   0.3750000   0.0721688   0.1462709), wk =   0.0039062
        k(  252) = (   0.3750000   0.0721688   0.2194063), wk =   0.0039062
        k(  253) = (   0.3750000   0.0721688  -0.2925418), wk =   0.0039062
        k(  254) = (   0.3750000   0.0721688  -0.2194063), wk =   0.0039062
        k(  255) = (   0.3750000   0.0721688  -0.1462709), wk =   0.0039062
        k(  256) = (   0.3750000   0.0721688  -0.0731354), wk =   0.0039062
        k(  257) = (  -0.5000000  -0.2886751   0.0000000), wk =   0.0039062
        k(  258) = (  -0.5000000  -0.2886751   0.0731354), wk =   0.0039062
        k(  259) = (  -0.5000000  -0.2886751   0.1462709), wk =   0.0039062
        k(  260) = (  -0.5000000  -0.2886751   0.2194063), wk =   0.0039062
        k(  261) = (  -0.5000000  -0.2886751  -0.2925418), wk =   0.0039062
        k(  262) = (  -0.5000000  -0.2886751  -0.2194063), wk =   0.0039062
        k(  263) = (  -0.5000000  -0.2886751  -0.1462709), wk =   0.0039062
        k(  264) = (  -0.5000000  -0.2886751  -0.0731354), wk =   0.0039062
        k(  265) = (  -0.5000000  -0.1443376   0.0000000), wk =   0.0039062
        k(  266) = (  -0.5000000  -0.1443376   0.0731354), wk =   0.0039062
        k(  267) = (  -0.5000000  -0.1443376   0.1462709), wk =   0.0039062
        k(  268) = (  -0.5000000  -0.1443376   0.2194063), wk =   0.0039062
        k(  269) = (  -0.5000000  -0.1443376  -0.2925418), wk =   0.0039062
        k(  270) = (  -0.5000000  -0.1443376  -0.2194063), wk =   0.0039062
        k(  271) = (  -0.5000000  -0.1443376  -0.1462709), wk =   0.0039062
        k(  272) = (  -0.5000000  -0.1443376  -0.0731354), wk =   0.0039062
        k(  273) = (  -0.5000000  -0.0000000   0.0000000), wk =   0.0039062
        k(  274) = (  -0.5000000  -0.0000000   0.0731354), wk =   0.0039062
        k(  275) = (  -0.5000000  -0.0000000   0.1462709), wk =   0.0039062
        k(  276) = (  -0.5000000  -0.0000000   0.2194063), wk =   0.0039062
        k(  277) = (  -0.5000000  -0.0000000  -0.2925418), wk =   0.0039062
        k(  278) = (  -0.5000000  -0.0000000  -0.2194063), wk =   0.0039062
        k(  279) = (  -0.5000000  -0.0000000  -0.1462709), wk =   0.0039062
        k(  280) = (  -0.5000000  -0.0000000  -0.0731354), wk =   0.0039062
        k(  281) = (  -0.5000000   0.1443376   0.0000000), wk =   0.0039062
        k(  282) = (  -0.5000000   0.1443376   0.0731354), wk =   0.0039062
        k(  283) = (  -0.5000000   0.1443376   0.1462709), wk =   0.0039062
        k(  284) = (  -0.5000000   0.1443376   0.2194063), wk =   0.0039062
        k(  285) = (  -0.5000000   0.1443376  -0.2925418), wk =   0.0039062
        k(  286) = (  -0.5000000   0.1443376  -0.2194063), wk =   0.0039062
        k(  287) = (  -0.5000000   0.1443376  -0.1462709), wk =   0.0039062
        k(  288) = (  -0.5000000   0.1443376  -0.0731354), wk =   0.0039062
        k(  289) = (  -0.5000000  -0.8660254   0.0000000), wk =   0.0039062
        k(  290) = (  -0.5000000  -0.8660254   0.0731354), wk =   0.0039062
        k(  291) = (  -0.5000000  -0.8660254   0.1462709), wk =   0.0039062
        k(  292) = (  -0.5000000  -0.8660254   0.2194063), wk =   0.0039062
        k(  293) = (  -0.5000000  -0.8660254  -0.2925418), wk =   0.0039062
        k(  294) = (  -0.5000000  -0.8660254  -0.2194063), wk =   0.0039062
        k(  295) = (  -0.5000000  -0.8660254  -0.1462709), wk =   0.0039062
        k(  296) = (  -0.5000000  -0.8660254  -0.0731354), wk =   0.0039062
        k(  297) = (  -0.5000000  -0.7216878   0.0000000), wk =   0.0039062
        k(  298) = (  -0.5000000  -0.7216878   0.0731354), wk =   0.0039062
        k(  299) = (  -0.5000000  -0.7216878   0.1462709), wk =   0.0039062
        k(  300) = (  -0.5000000  -0.7216878   0.2194063), wk =   0.0039062
        k(  301) = (  -0.5000000  -0.7216878  -0.2925418), wk =   0.0039062
        k(  302) = (  -0.5000000  -0.7216878  -0.2194063), wk =   0.0039062
        k(  303) = (  -0.5000000  -0.7216878  -0.1462709), wk =   0.0039062
        k(  304) = (  -0.5000000  -0.7216878  -0.0731354), wk =   0.0039062
        k(  305) = (  -0.5000000  -0.5773503   0.0000000), wk =   0.0039062
        k(  306) = (  -0.5000000  -0.5773503   0.0731354), wk =   0.0039062
        k(  307) = (  -0.5000000  -0.5773503   0.1462709), wk =   0.0039062
        k(  308) = (  -0.5000000  -0.5773503   0.2194063), wk =   0.0039062
        k(  309) = (  -0.5000000  -0.5773503  -0.2925418), wk =   0.0039062
        k(  310) = (  -0.5000000  -0.5773503  -0.2194063), wk =   0.0039062
        k(  311) = (  -0.5000000  -0.5773503  -0.1462709), wk =   0.0039062
        k(  312) = (  -0.5000000  -0.5773503  -0.0731354), wk =   0.0039062
        k(  313) = (  -0.5000000  -0.4330127   0.0000000), wk =   0.0039062
        k(  314) = (  -0.5000000  -0.4330127   0.0731354), wk =   0.0039062
        k(  315) = (  -0.5000000  -0.4330127   0.1462709), wk =   0.0039062
        k(  316) = (  -0.5000000  -0.4330127   0.2194063), wk =   0.0039062
        k(  317) = (  -0.5000000  -0.4330127  -0.2925418), wk =   0.0039062
        k(  318) = (  -0.5000000  -0.4330127  -0.2194063), wk =   0.0039062
        k(  319) = (  -0.5000000  -0.4330127  -0.1462709), wk =   0.0039062
        k(  320) = (  -0.5000000  -0.4330127  -0.0731354), wk =   0.0039062
        k(  321) = (  -0.3750000  -0.2165064   0.0000000), wk =   0.0039062
        k(  322) = (  -0.3750000  -0.2165064   0.0731354), wk =   0.0039062
        k(  323) = (  -0.3750000  -0.2165064   0.1462709), wk =   0.0039062
        k(  324) = (  -0.3750000  -0.2165064   0.2194063), wk =   0.0039062
        k(  325) = (  -0.3750000  -0.2165064  -0.2925418), wk =   0.0039062
        k(  326) = (  -0.3750000  -0.2165064  -0.2194063), wk =   0.0039062
        k(  327) = (  -0.3750000  -0.2165064  -0.1462709), wk =   0.0039062
        k(  328) = (  -0.3750000  -0.2165064  -0.0731354), wk =   0.0039062
        k(  329) = (  -0.3750000  -0.0721688   0.0000000), wk =   0.0039062
        k(  330) = (  -0.3750000  -0.0721688   0.0731354), wk =   0.0039062
        k(  331) = (  -0.3750000  -0.0721688   0.1462709), wk =   0.0039062
        k(  332) = (  -0.3750000  -0.0721688   0.2194063), wk =   0.0039062
        k(  333) = (  -0.3750000  -0.0721688  -0.2925418), wk =   0.0039062
        k(  334) = (  -0.3750000  -0.0721688  -0.2194063), wk =   0.0039062
        k(  335) = (  -0.3750000  -0.0721688  -0.1462709), wk =   0.0039062
        k(  336) = (  -0.3750000  -0.0721688  -0.0731354), wk =   0.0039062
        k(  337) = (  -0.3750000   0.0721688   0.0000000), wk =   0.0039062
        k(  338) = (  -0.3750000   0.0721688   0.0731354), wk =   0.0039062
        k(  339) = (  -0.3750000   0.0721688   0.1462709), wk =   0.0039062
        k(  340) = (  -0.3750000   0.0721688   0.2194063), wk =   0.0039062
        k(  341) = (  -0.3750000   0.0721688  -0.2925418), wk =   0.0039062
        k(  342) = (  -0.3750000   0.0721688  -0.2194063), wk =   0.0039062
        k(  343) = (  -0.3750000   0.0721688  -0.1462709), wk =   0.0039062
        k(  344) = (  -0.3750000   0.0721688  -0.0731354), wk =   0.0039062
        k(  345) = (  -0.3750000   0.2165064   0.0000000), wk =   0.0039062
        k(  346) = (  -0.3750000   0.2165064   0.0731354), wk =   0.0039062
        k(  347) = (  -0.3750000   0.2165064   0.1462709), wk =   0.0039062
        k(  348) = (  -0.3750000   0.2165064   0.2194063), wk =   0.0039062
        k(  349) = (  -0.3750000   0.2165064  -0.2925418), wk =   0.0039062
        k(  350) = (  -0.3750000   0.2165064  -0.2194063), wk =   0.0039062
        k(  351) = (  -0.3750000   0.2165064  -0.1462709), wk =   0.0039062
        k(  352) = (  -0.3750000   0.2165064  -0.0731354), wk =   0.0039062
        k(  353) = (  -0.3750000  -0.7938566   0.0000000), wk =   0.0039062
        k(  354) = (  -0.3750000  -0.7938566   0.0731354), wk =   0.0039062
        k(  355) = (  -0.3750000  -0.7938566   0.1462709), wk =   0.0039062
        k(  356) = (  -0.3750000  -0.7938566   0.2194063), wk =   0.0039062
        k(  357) = (  -0.3750000  -0.7938566  -0.2925418), wk =   0.0039062
        k(  358) = (  -0.3750000  -0.7938566  -0.2194063), wk =   0.0039062
        k(  359) = (  -0.3750000  -0.7938566  -0.1462709), wk =   0.0039062
        k(  360) = (  -0.3750000  -0.7938566  -0.0731354), wk =   0.0039062
        k(  361) = (  -0.3750000  -0.6495191   0.0000000), wk =   0.0039062
        k(  362) = (  -0.3750000  -0.6495191   0.0731354), wk =   0.0039062
        k(  363) = (  -0.3750000  -0.6495191   0.1462709), wk =   0.0039062
        k(  364) = (  -0.3750000  -0.6495191   0.2194063), wk =   0.0039062
        k(  365) = (  -0.3750000  -0.6495191  -0.2925418), wk =   0.0039062
        k(  366) = (  -0.3750000  -0.6495191  -0.2194063), wk =   0.0039062
        k(  367) = (  -0.3750000  -0.6495191  -0.1462709), wk =   0.0039062
        k(  368) = (  -0.3750000  -0.6495191  -0.0731354), wk =   0.0039062
        k(  369) = (  -0.3750000  -0.5051815   0.0000000), wk =   0.0039062
        k(  370) = (  -0.3750000  -0.5051815   0.0731354), wk =   0.0039062
        k(  371) = (  -0.3750000  -0.5051815   0.1462709), wk =   0.0039062
        k(  372) = (  -0.3750000  -0.5051815   0.2194063), wk =   0.0039062
        k(  373) = (  -0.3750000  -0.5051815  -0.2925418), wk =   0.0039062
        k(  374) = (  -0.3750000  -0.5051815  -0.2194063), wk =   0.0039062
        k(  375) = (  -0.3750000  -0.5051815  -0.1462709), wk =   0.0039062
        k(  376) = (  -0.3750000  -0.5051815  -0.0731354), wk =   0.0039062
        k(  377) = (  -0.3750000  -0.3608439   0.0000000), wk =   0.0039062
        k(  378) = (  -0.3750000  -0.3608439   0.0731354), wk =   0.0039062
        k(  379) = (  -0.3750000  -0.3608439   0.1462709), wk =   0.0039062
        k(  380) = (  -0.3750000  -0.3608439   0.2194063), wk =   0.0039062
        k(  381) = (  -0.3750000  -0.3608439  -0.2925418), wk =   0.0039062
        k(  382) = (  -0.3750000  -0.3608439  -0.2194063), wk =   0.0039062
        k(  383) = (  -0.3750000  -0.3608439  -0.1462709), wk =   0.0039062
        k(  384) = (  -0.3750000  -0.3608439  -0.0731354), wk =   0.0039062
        k(  385) = (  -0.2500000  -0.1443376   0.0000000), wk =   0.0039062
        k(  386) = (  -0.2500000  -0.1443376   0.0731354), wk =   0.0039062
        k(  387) = (  -0.2500000  -0.1443376   0.1462709), wk =   0.0039062
        k(  388) = (  -0.2500000  -0.1443376   0.2194063), wk =   0.0039062
        k(  389) = (  -0.2500000  -0.1443376  -0.2925418), wk =   0.0039062
        k(  390) = (  -0.2500000  -0.1443376  -0.2194063), wk =   0.0039062
        k(  391) = (  -0.2500000  -0.1443376  -0.1462709), wk =   0.0039062
        k(  392) = (  -0.2500000  -0.1443376  -0.0731354), wk =   0.0039062
        k(  393) = (  -0.2500000  -0.0000000   0.0000000), wk =   0.0039062
        k(  394) = (  -0.2500000  -0.0000000   0.0731354), wk =   0.0039062
        k(  395) = (  -0.2500000  -0.0000000   0.1462709), wk =   0.0039062
        k(  396) = (  -0.2500000  -0.0000000   0.2194063), wk =   0.0039062
        k(  397) = (  -0.2500000  -0.0000000  -0.2925418), wk =   0.0039062
        k(  398) = (  -0.2500000  -0.0000000  -0.2194063), wk =   0.0039062
        k(  399) = (  -0.2500000  -0.0000000  -0.1462709), wk =   0.0039062
        k(  400) = (  -0.2500000  -0.0000000  -0.0731354), wk =   0.0039062
        k(  401) = (  -0.2500000   0.1443376   0.0000000), wk =   0.0039062
        k(  402) = (  -0.2500000   0.1443376   0.0731354), wk =   0.0039062
        k(  403) = (  -0.2500000   0.1443376   0.1462709), wk =   0.0039062
        k(  404) = (  -0.2500000   0.1443376   0.2194063), wk =   0.0039062
        k(  405) = (  -0.2500000   0.1443376  -0.2925418), wk =   0.0039062
        k(  406) = (  -0.2500000   0.1443376  -0.2194063), wk =   0.0039062
        k(  407) = (  -0.2500000   0.1443376  -0.1462709), wk =   0.0039062
        k(  408) = (  -0.2500000   0.1443376  -0.0731354), wk =   0.0039062
        k(  409) = (  -0.2500000   0.2886751   0.0000000), wk =   0.0039062
        k(  410) = (  -0.2500000   0.2886751   0.0731354), wk =   0.0039062
        k(  411) = (  -0.2500000   0.2886751   0.1462709), wk =   0.0039062
        k(  412) = (  -0.2500000   0.2886751   0.2194063), wk =   0.0039062
        k(  413) = (  -0.2500000   0.2886751  -0.2925418), wk =   0.0039062
        k(  414) = (  -0.2500000   0.2886751  -0.2194063), wk =   0.0039062
        k(  415) = (  -0.2500000   0.2886751  -0.1462709), wk =   0.0039062
        k(  416) = (  -0.2500000   0.2886751  -0.0731354), wk =   0.0039062
        k(  417) = (  -0.2500000  -0.7216878   0.0000000), wk =   0.0039062
        k(  418) = (  -0.2500000  -0.7216878   0.0731354), wk =   0.0039062
        k(  419) = (  -0.2500000  -0.7216878   0.1462709), wk =   0.0039062
        k(  420) = (  -0.2500000  -0.7216878   0.2194063), wk =   0.0039062
        k(  421) = (  -0.2500000  -0.7216878  -0.2925418), wk =   0.0039062
        k(  422) = (  -0.2500000  -0.7216878  -0.2194063), wk =   0.0039062
        k(  423) = (  -0.2500000  -0.7216878  -0.1462709), wk =   0.0039062
        k(  424) = (  -0.2500000  -0.7216878  -0.0731354), wk =   0.0039062
        k(  425) = (  -0.2500000  -0.5773503   0.0000000), wk =   0.0039062
        k(  426) = (  -0.2500000  -0.5773503   0.0731354), wk =   0.0039062
        k(  427) = (  -0.2500000  -0.5773503   0.1462709), wk =   0.0039062
        k(  428) = (  -0.2500000  -0.5773503   0.2194063), wk =   0.0039062
        k(  429) = (  -0.2500000  -0.5773503  -0.2925418), wk =   0.0039062
        k(  430) = (  -0.2500000  -0.5773503  -0.2194063), wk =   0.0039062
        k(  431) = (  -0.2500000  -0.5773503  -0.1462709), wk =   0.0039062
        k(  432) = (  -0.2500000  -0.5773503  -0.0731354), wk =   0.0039062
        k(  433) = (  -0.2500000  -0.4330127   0.0000000), wk =   0.0039062
        k(  434) = (  -0.2500000  -0.4330127   0.0731354), wk =   0.0039062
        k(  435) = (  -0.2500000  -0.4330127   0.1462709), wk =   0.0039062
        k(  436) = (  -0.2500000  -0.4330127   0.2194063), wk =   0.0039062
        k(  437) = (  -0.2500000  -0.4330127  -0.2925418), wk =   0.0039062
        k(  438) = (  -0.2500000  -0.4330127  -0.2194063), wk =   0.0039062
        k(  439) = (  -0.2500000  -0.4330127  -0.1462709), wk =   0.0039062
        k(  440) = (  -0.2500000  -0.4330127  -0.0731354), wk =   0.0039062
        k(  441) = (  -0.2500000  -0.2886751   0.0000000), wk =   0.0039062
        k(  442) = (  -0.2500000  -0.2886751   0.0731354), wk =   0.0039062
        k(  443) = (  -0.2500000  -0.2886751   0.1462709), wk =   0.0039062
        k(  444) = (  -0.2500000  -0.2886751   0.2194063), wk =   0.0039062
        k(  445) = (  -0.2500000  -0.2886751  -0.2925418), wk =   0.0039062
        k(  446) = (  -0.2500000  -0.2886751  -0.2194063), wk =   0.0039062
        k(  447) = (  -0.2500000  -0.2886751  -0.1462709), wk =   0.0039062
        k(  448) = (  -0.2500000  -0.2886751  -0.0731354), wk =   0.0039062
        k(  449) = (  -0.1250000  -0.0721688   0.0000000), wk =   0.0039062
        k(  450) = (  -0.1250000  -0.0721688   0.0731354), wk =   0.0039062
        k(  451) = (  -0.1250000  -0.0721688   0.1462709), wk =   0.0039062
        k(  452) = (  -0.1250000  -0.0721688   0.2194063), wk =   0.0039062
        k(  453) = (  -0.1250000  -0.0721688  -0.2925418), wk =   0.0039062
        k(  454) = (  -0.1250000  -0.0721688  -0.2194063), wk =   0.0039062
        k(  455) = (  -0.1250000  -0.0721688  -0.1462709), wk =   0.0039062
        k(  456) = (  -0.1250000  -0.0721688  -0.0731354), wk =   0.0039062
        k(  457) = (  -0.1250000   0.0721688   0.0000000), wk =   0.0039062
        k(  458) = (  -0.1250000   0.0721688   0.0731354), wk =   0.0039062
        k(  459) = (  -0.1250000   0.0721688   0.1462709), wk =   0.0039062
        k(  460) = (  -0.1250000   0.0721688   0.2194063), wk =   0.0039062
        k(  461) = (  -0.1250000   0.0721688  -0.2925418), wk =   0.0039062
        k(  462) = (  -0.1250000   0.0721688  -0.2194063), wk =   0.0039062
        k(  463) = (  -0.1250000   0.0721688  -0.1462709), wk =   0.0039062
        k(  464) = (  -0.1250000   0.0721688  -0.0731354), wk =   0.0039062
        k(  465) = (  -0.1250000   0.2165064   0.0000000), wk =   0.0039062
        k(  466) = (  -0.1250000   0.2165064   0.0731354), wk =   0.0039062
        k(  467) = (  -0.1250000   0.2165064   0.1462709), wk =   0.0039062
        k(  468) = (  -0.1250000   0.2165064   0.2194063), wk =   0.0039062
        k(  469) = (  -0.1250000   0.2165064  -0.2925418), wk =   0.0039062
        k(  470) = (  -0.1250000   0.2165064  -0.2194063), wk =   0.0039062
        k(  471) = (  -0.1250000   0.2165064  -0.1462709), wk =   0.0039062
        k(  472) = (  -0.1250000   0.2165064  -0.0731354), wk =   0.0039062
        k(  473) = (  -0.1250000   0.3608439   0.0000000), wk =   0.0039062
        k(  474) = (  -0.1250000   0.3608439   0.0731354), wk =   0.0039062
        k(  475) = (  -0.1250000   0.3608439   0.1462709), wk =   0.0039062
        k(  476) = (  -0.1250000   0.3608439   0.2194063), wk =   0.0039062
        k(  477) = (  -0.1250000   0.3608439  -0.2925418), wk =   0.0039062
        k(  478) = (  -0.1250000   0.3608439  -0.2194063), wk =   0.0039062
        k(  479) = (  -0.1250000   0.3608439  -0.1462709), wk =   0.0039062
        k(  480) = (  -0.1250000   0.3608439  -0.0731354), wk =   0.0039062
        k(  481) = (  -0.1250000  -0.6495191   0.0000000), wk =   0.0039062
        k(  482) = (  -0.1250000  -0.6495191   0.0731354), wk =   0.0039062
        k(  483) = (  -0.1250000  -0.6495191   0.1462709), wk =   0.0039062
        k(  484) = (  -0.1250000  -0.6495191   0.2194063), wk =   0.0039062
        k(  485) = (  -0.1250000  -0.6495191  -0.2925418), wk =   0.0039062
        k(  486) = (  -0.1250000  -0.6495191  -0.2194063), wk =   0.0039062
        k(  487) = (  -0.1250000  -0.6495191  -0.1462709), wk =   0.0039062
        k(  488) = (  -0.1250000  -0.6495191  -0.0731354), wk =   0.0039062
        k(  489) = (  -0.1250000  -0.5051815   0.0000000), wk =   0.0039062
        k(  490) = (  -0.1250000  -0.5051815   0.0731354), wk =   0.0039062
        k(  491) = (  -0.1250000  -0.5051815   0.1462709), wk =   0.0039062
        k(  492) = (  -0.1250000  -0.5051815   0.2194063), wk =   0.0039062
        k(  493) = (  -0.1250000  -0.5051815  -0.2925418), wk =   0.0039062
        k(  494) = (  -0.1250000  -0.5051815  -0.2194063), wk =   0.0039062
        k(  495) = (  -0.1250000  -0.5051815  -0.1462709), wk =   0.0039062
        k(  496) = (  -0.1250000  -0.5051815  -0.0731354), wk =   0.0039062
        k(  497) = (  -0.1250000  -0.3608439   0.0000000), wk =   0.0039062
        k(  498) = (  -0.1250000  -0.3608439   0.0731354), wk =   0.0039062
        k(  499) = (  -0.1250000  -0.3608439   0.1462709), wk =   0.0039062
        k(  500) = (  -0.1250000  -0.3608439   0.2194063), wk =   0.0039062
        k(  501) = (  -0.1250000  -0.3608439  -0.2925418), wk =   0.0039062
        k(  502) = (  -0.1250000  -0.3608439  -0.2194063), wk =   0.0039062
        k(  503) = (  -0.1250000  -0.3608439  -0.1462709), wk =   0.0039062
        k(  504) = (  -0.1250000  -0.3608439  -0.0731354), wk =   0.0039062
        k(  505) = (  -0.1250000  -0.2165064   0.0000000), wk =   0.0039062
        k(  506) = (  -0.1250000  -0.2165064   0.0731354), wk =   0.0039062
        k(  507) = (  -0.1250000  -0.2165064   0.1462709), wk =   0.0039062
        k(  508) = (  -0.1250000  -0.2165064   0.2194063), wk =   0.0039062
        k(  509) = (  -0.1250000  -0.2165064  -0.2925418), wk =   0.0039062
        k(  510) = (  -0.1250000  -0.2165064  -0.2194063), wk =   0.0039062
        k(  511) = (  -0.1250000  -0.2165064  -0.1462709), wk =   0.0039062
        k(  512) = (  -0.1250000  -0.2165064  -0.0731354), wk =   0.0039062

                       cryst. coord.
        k(    1) = (   0.0000000   0.0000000   0.0000000), wk =   0.0039062
        k(    2) = (   0.0000000   0.0000000   0.1250000), wk =   0.0039062
        k(    3) = (   0.0000000   0.0000000   0.2500000), wk =   0.0039062
        k(    4) = (   0.0000000   0.0000000   0.3750000), wk =   0.0039062
        k(    5) = (   0.0000000   0.0000000  -0.5000000), wk =   0.0039062
        k(    6) = (   0.0000000   0.0000000  -0.3750000), wk =   0.0039062
        k(    7) = (   0.0000000   0.0000000  -0.2500000), wk =   0.0039062
        k(    8) = (   0.0000000   0.0000000  -0.1250000), wk =   0.0039062
        k(    9) = (   0.0000000   0.1250000   0.0000000), wk =   0.0039062
        k(   10) = (   0.0000000   0.1250000   0.1250000), wk =   0.0039062
        k(   11) = (   0.0000000   0.1250000   0.2500000), wk =   0.0039062
        k(   12) = (   0.0000000   0.1250000   0.3750000), wk =   0.0039062
        k(   13) = (   0.0000000   0.1250000  -0.5000000), wk =   0.0039062
        k(   14) = (   0.0000000   0.1250000  -0.3750000), wk =   0.0039062
        k(   15) = (   0.0000000   0.1250000  -0.2500000), wk =   0.0039062
        k(   16) = (   0.0000000   0.1250000  -0.1250000), wk =   0.0039062
        k(   17) = (   0.0000000   0.2500000   0.0000000), wk =   0.0039062
        k(   18) = (   0.0000000   0.2500000   0.1250000), wk =   0.0039062
        k(   19) = (   0.0000000   0.2500000   0.2500000), wk =   0.0039062
        k(   20) = (   0.0000000   0.2500000   0.3750000), wk =   0.0039062
        k(   21) = (   0.0000000   0.2500000  -0.5000000), wk =   0.0039062
        k(   22) = (   0.0000000   0.2500000  -0.3750000), wk =   0.0039062
        k(   23) = (   0.0000000   0.2500000  -0.2500000), wk =   0.0039062
        k(   24) = (   0.0000000   0.2500000  -0.1250000), wk =   0.0039062
        k(   25) = (   0.0000000   0.3750000   0.0000000), wk =   0.0039062
        k(   26) = (   0.0000000   0.3750000   0.1250000), wk =   0.0039062
        k(   27) = (   0.0000000   0.3750000   0.2500000), wk =   0.0039062
        k(   28) = (   0.0000000   0.3750000   0.3750000), wk =   0.0039062
        k(   29) = (   0.0000000   0.3750000  -0.5000000), wk =   0.0039062
        k(   30) = (   0.0000000   0.3750000  -0.3750000), wk =   0.0039062
        k(   31) = (   0.0000000   0.3750000  -0.2500000), wk =   0.0039062
        k(   32) = (   0.0000000   0.3750000  -0.1250000), wk =   0.0039062
        k(   33) = (   0.0000000  -0.5000000   0.0000000), wk =   0.0039062
        k(   34) = (   0.0000000  -0.5000000   0.1250000), wk =   0.0039062
        k(   35) = (   0.0000000  -0.5000000   0.2500000), wk =   0.0039062
        k(   36) = (   0.0000000  -0.5000000   0.3750000), wk =   0.0039062
        k(   37) = (   0.0000000  -0.5000000  -0.5000000), wk =   0.0039062
        k(   38) = (   0.0000000  -0.5000000  -0.3750000), wk =   0.0039062
        k(   39) = (   0.0000000  -0.5000000  -0.2500000), wk =   0.0039062
        k(   40) = (   0.0000000  -0.5000000  -0.1250000), wk =   0.0039062
        k(   41) = (   0.0000000  -0.3750000   0.0000000), wk =   0.0039062
        k(   42) = (   0.0000000  -0.3750000   0.1250000), wk =   0.0039062
        k(   43) = (   0.0000000  -0.3750000   0.2500000), wk =   0.0039062
        k(   44) = (   0.0000000  -0.3750000   0.3750000), wk =   0.0039062
        k(   45) = (   0.0000000  -0.3750000  -0.5000000), wk =   0.0039062
        k(   46) = (   0.0000000  -0.3750000  -0.3750000), wk =   0.0039062
        k(   47) = (   0.0000000  -0.3750000  -0.2500000), wk =   0.0039062
        k(   48) = (   0.0000000  -0.3750000  -0.1250000), wk =   0.0039062
        k(   49) = (   0.0000000  -0.2500000   0.0000000), wk =   0.0039062
        k(   50) = (   0.0000000  -0.2500000   0.1250000), wk =   0.0039062
        k(   51) = (   0.0000000  -0.2500000   0.2500000), wk =   0.0039062
        k(   52) = (   0.0000000  -0.2500000   0.3750000), wk =   0.0039062
        k(   53) = (   0.0000000  -0.2500000  -0.5000000), wk =   0.0039062
        k(   54) = (   0.0000000  -0.2500000  -0.3750000), wk =   0.0039062
        k(   55) = (   0.0000000  -0.2500000  -0.2500000), wk =   0.0039062
        k(   56) = (   0.0000000  -0.2500000  -0.1250000), wk =   0.0039062
        k(   57) = (   0.0000000  -0.1250000   0.0000000), wk =   0.0039062
        k(   58) = (   0.0000000  -0.1250000   0.1250000), wk =   0.0039062
        k(   59) = (   0.0000000  -0.1250000   0.2500000), wk =   0.0039062
        k(   60) = (   0.0000000  -0.1250000   0.3750000), wk =   0.0039062
        k(   61) = (   0.0000000  -0.1250000  -0.5000000), wk =   0.0039062
        k(   62) = (   0.0000000  -0.1250000  -0.3750000), wk =   0.0039062
        k(   63) = (   0.0000000  -0.1250000  -0.2500000), wk =   0.0039062
        k(   64) = (   0.0000000  -0.1250000  -0.1250000), wk =   0.0039062
        k(   65) = (   0.1250000   0.0000000   0.0000000), wk =   0.0039062
        k(   66) = (   0.1250000   0.0000000   0.1250000), wk =   0.0039062
        k(   67) = (   0.1250000   0.0000000   0.2500000), wk =   0.0039062
        k(   68) = (   0.1250000   0.0000000   0.3750000), wk =   0.0039062
        k(   69) = (   0.1250000   0.0000000  -0.5000000), wk =   0.0039062
        k(   70) = (   0.1250000   0.0000000  -0.3750000), wk =   0.0039062
        k(   71) = (   0.1250000   0.0000000  -0.2500000), wk =   0.0039062
        k(   72) = (   0.1250000   0.0000000  -0.1250000), wk =   0.0039062
        k(   73) = (   0.1250000   0.1250000   0.0000000), wk =   0.0039062
        k(   74) = (   0.1250000   0.1250000   0.1250000), wk =   0.0039062
        k(   75) = (   0.1250000   0.1250000   0.2500000), wk =   0.0039062
        k(   76) = (   0.1250000   0.1250000   0.3750000), wk =   0.0039062
        k(   77) = (   0.1250000   0.1250000  -0.5000000), wk =   0.0039062
        k(   78) = (   0.1250000   0.1250000  -0.3750000), wk =   0.0039062
        k(   79) = (   0.1250000   0.1250000  -0.2500000), wk =   0.0039062
        k(   80) = (   0.1250000   0.1250000  -0.1250000), wk =   0.0039062
        k(   81) = (   0.1250000   0.2500000   0.0000000), wk =   0.0039062
        k(   82) = (   0.1250000   0.2500000   0.1250000), wk =   0.0039062
        k(   83) = (   0.1250000   0.2500000   0.2500000), wk =   0.0039062
        k(   84) = (   0.1250000   0.2500000   0.3750000), wk =   0.0039062
        k(   85) = (   0.1250000   0.2500000  -0.5000000), wk =   0.0039062
        k(   86) = (   0.1250000   0.2500000  -0.3750000), wk =   0.0039062
        k(   87) = (   0.1250000   0.2500000  -0.2500000), wk =   0.0039062
        k(   88) = (   0.1250000   0.2500000  -0.1250000), wk =   0.0039062
        k(   89) = (   0.1250000   0.3750000   0.0000000), wk =   0.0039062
        k(   90) = (   0.1250000   0.3750000   0.1250000), wk =   0.0039062
        k(   91) = (   0.1250000   0.3750000   0.2500000), wk =   0.0039062
        k(   92) = (   0.1250000   0.3750000   0.3750000), wk =   0.0039062
        k(   93) = (   0.1250000   0.3750000  -0.5000000), wk =   0.0039062
        k(   94) = (   0.1250000   0.3750000  -0.3750000), wk =   0.0039062
        k(   95) = (   0.1250000   0.3750000  -0.2500000), wk =   0.0039062
        k(   96) = (   0.1250000   0.3750000  -0.1250000), wk =   0.0039062
        k(   97) = (   0.1250000  -0.5000000   0.0000000), wk =   0.0039062
        k(   98) = (   0.1250000  -0.5000000   0.1250000), wk =   0.0039062
        k(   99) = (   0.1250000  -0.5000000   0.2500000), wk =   0.0039062
        k(  100) = (   0.1250000  -0.5000000   0.3750000), wk =   0.0039062
        k(  101) = (   0.1250000  -0.5000000  -0.5000000), wk =   0.0039062
        k(  102) = (   0.1250000  -0.5000000  -0.3750000), wk =   0.0039062
        k(  103) = (   0.1250000  -0.5000000  -0.2500000), wk =   0.0039062
        k(  104) = (   0.1250000  -0.5000000  -0.1250000), wk =   0.0039062
        k(  105) = (   0.1250000  -0.3750000   0.0000000), wk =   0.0039062
        k(  106) = (   0.1250000  -0.3750000   0.1250000), wk =   0.0039062
        k(  107) = (   0.1250000  -0.3750000   0.2500000), wk =   0.0039062
        k(  108) = (   0.1250000  -0.3750000   0.3750000), wk =   0.0039062
        k(  109) = (   0.1250000  -0.3750000  -0.5000000), wk =   0.0039062
        k(  110) = (   0.1250000  -0.3750000  -0.3750000), wk =   0.0039062
        k(  111) = (   0.1250000  -0.3750000  -0.2500000), wk =   0.0039062
        k(  112) = (   0.1250000  -0.3750000  -0.1250000), wk =   0.0039062
        k(  113) = (   0.1250000  -0.2500000   0.0000000), wk =   0.0039062
        k(  114) = (   0.1250000  -0.2500000   0.1250000), wk =   0.0039062
        k(  115) = (   0.1250000  -0.2500000   0.2500000), wk =   0.0039062
        k(  116) = (   0.1250000  -0.2500000   0.3750000), wk =   0.0039062
        k(  117) = (   0.1250000  -0.2500000  -0.5000000), wk =   0.0039062
        k(  118) = (   0.1250000  -0.2500000  -0.3750000), wk =   0.0039062
        k(  119) = (   0.1250000  -0.2500000  -0.2500000), wk =   0.0039062
        k(  120) = (   0.1250000  -0.2500000  -0.1250000), wk =   0.0039062
        k(  121) = (   0.1250000  -0.1250000   0.0000000), wk =   0.0039062
        k(  122) = (   0.1250000  -0.1250000   0.1250000), wk =   0.0039062
        k(  123) = (   0.1250000  -0.1250000   0.2500000), wk =   0.0039062
        k(  124) = (   0.1250000  -0.1250000   0.3750000), wk =   0.0039062
        k(  125) = (   0.1250000  -0.1250000  -0.5000000), wk =   0.0039062
        k(  126) = (   0.1250000  -0.1250000  -0.3750000), wk =   0.0039062
        k(  127) = (   0.1250000  -0.1250000  -0.2500000), wk =   0.0039062
        k(  128) = (   0.1250000  -0.1250000  -0.1250000), wk =   0.0039062
        k(  129) = (   0.2500000   0.0000000   0.0000000), wk =   0.0039062
        k(  130) = (   0.2500000   0.0000000   0.1250000), wk =   0.0039062
        k(  131) = (   0.2500000   0.0000000   0.2500000), wk =   0.0039062
        k(  132) = (   0.2500000   0.0000000   0.3750000), wk =   0.0039062
        k(  133) = (   0.2500000   0.0000000  -0.5000000), wk =   0.0039062
        k(  134) = (   0.2500000   0.0000000  -0.3750000), wk =   0.0039062
        k(  135) = (   0.2500000   0.0000000  -0.2500000), wk =   0.0039062
        k(  136) = (   0.2500000   0.0000000  -0.1250000), wk =   0.0039062
        k(  137) = (   0.2500000   0.1250000   0.0000000), wk =   0.0039062
        k(  138) = (   0.2500000   0.1250000   0.1250000), wk =   0.0039062
        k(  139) = (   0.2500000   0.1250000   0.2500000), wk =   0.0039062
        k(  140) = (   0.2500000   0.1250000   0.3750000), wk =   0.0039062
        k(  141) = (   0.2500000   0.1250000  -0.5000000), wk =   0.0039062
        k(  142) = (   0.2500000   0.1250000  -0.3750000), wk =   0.0039062
        k(  143) = (   0.2500000   0.1250000  -0.2500000), wk =   0.0039062
        k(  144) = (   0.2500000   0.1250000  -0.1250000), wk =   0.0039062
        k(  145) = (   0.2500000   0.2500000   0.0000000), wk =   0.0039062
        k(  146) = (   0.2500000   0.2500000   0.1250000), wk =   0.0039062
        k(  147) = (   0.2500000   0.2500000   0.2500000), wk =   0.0039062
        k(  148) = (   0.2500000   0.2500000   0.3750000), wk =   0.0039062
        k(  149) = (   0.2500000   0.2500000  -0.5000000), wk =   0.0039062
        k(  150) = (   0.2500000   0.2500000  -0.3750000), wk =   0.0039062
        k(  151) = (   0.2500000   0.2500000  -0.2500000), wk =   0.0039062
        k(  152) = (   0.2500000   0.2500000  -0.1250000), wk =   0.0039062
        k(  153) = (   0.2500000   0.3750000   0.0000000), wk =   0.0039062
        k(  154) = (   0.2500000   0.3750000   0.1250000), wk =   0.0039062
        k(  155) = (   0.2500000   0.3750000   0.2500000), wk =   0.0039062
        k(  156) = (   0.2500000   0.3750000   0.3750000), wk =   0.0039062
        k(  157) = (   0.2500000   0.3750000  -0.5000000), wk =   0.0039062
        k(  158) = (   0.2500000   0.3750000  -0.3750000), wk =   0.0039062
        k(  159) = (   0.2500000   0.3750000  -0.2500000), wk =   0.0039062
        k(  160) = (   0.2500000   0.3750000  -0.1250000), wk =   0.0039062
        k(  161) = (   0.2500000  -0.5000000   0.0000000), wk =   0.0039062
        k(  162) = (   0.2500000  -0.5000000   0.1250000), wk =   0.0039062
        k(  163) = (   0.2500000  -0.5000000   0.2500000), wk =   0.0039062
        k(  164) = (   0.2500000  -0.5000000   0.3750000), wk =   0.0039062
        k(  165) = (   0.2500000  -0.5000000  -0.5000000), wk =   0.0039062
        k(  166) = (   0.2500000  -0.5000000  -0.3750000), wk =   0.0039062
        k(  167) = (   0.2500000  -0.5000000  -0.2500000), wk =   0.0039062
        k(  168) = (   0.2500000  -0.5000000  -0.1250000), wk =   0.0039062
        k(  169) = (   0.2500000  -0.3750000   0.0000000), wk =   0.0039062
        k(  170) = (   0.2500000  -0.3750000   0.1250000), wk =   0.0039062
        k(  171) = (   0.2500000  -0.3750000   0.2500000), wk =   0.0039062
        k(  172) = (   0.2500000  -0.3750000   0.3750000), wk =   0.0039062
        k(  173) = (   0.2500000  -0.3750000  -0.5000000), wk =   0.0039062
        k(  174) = (   0.2500000  -0.3750000  -0.3750000), wk =   0.0039062
        k(  175) = (   0.2500000  -0.3750000  -0.2500000), wk =   0.0039062
        k(  176) = (   0.2500000  -0.3750000  -0.1250000), wk =   0.0039062
        k(  177) = (   0.2500000  -0.2500000   0.0000000), wk =   0.0039062
        k(  178) = (   0.2500000  -0.2500000   0.1250000), wk =   0.0039062
        k(  179) = (   0.2500000  -0.2500000   0.2500000), wk =   0.0039062
        k(  180) = (   0.2500000  -0.2500000   0.3750000), wk =   0.0039062
        k(  181) = (   0.2500000  -0.2500000  -0.5000000), wk =   0.0039062
        k(  182) = (   0.2500000  -0.2500000  -0.3750000), wk =   0.0039062
        k(  183) = (   0.2500000  -0.2500000  -0.2500000), wk =   0.0039062
        k(  184) = (   0.2500000  -0.2500000  -0.1250000), wk =   0.0039062
        k(  185) = (   0.2500000  -0.1250000   0.0000000), wk =   0.0039062
        k(  186) = (   0.2500000  -0.1250000   0.1250000), wk =   0.0039062
        k(  187) = (   0.2500000  -0.1250000   0.2500000), wk =   0.0039062
        k(  188) = (   0.2500000  -0.1250000   0.3750000), wk =   0.0039062
        k(  189) = (   0.2500000  -0.1250000  -0.5000000), wk =   0.0039062
        k(  190) = (   0.2500000  -0.1250000  -0.3750000), wk =   0.0039062
        k(  191) = (   0.2500000  -0.1250000  -0.2500000), wk =   0.0039062
        k(  192) = (   0.2500000  -0.1250000  -0.1250000), wk =   0.0039062
        k(  193) = (   0.3750000   0.0000000   0.0000000), wk =   0.0039062
        k(  194) = (   0.3750000   0.0000000   0.1250000), wk =   0.0039062
        k(  195) = (   0.3750000   0.0000000   0.2500000), wk =   0.0039062
        k(  196) = (   0.3750000   0.0000000   0.3750000), wk =   0.0039062
        k(  197) = (   0.3750000   0.0000000  -0.5000000), wk =   0.0039062
        k(  198) = (   0.3750000   0.0000000  -0.3750000), wk =   0.0039062
        k(  199) = (   0.3750000   0.0000000  -0.2500000), wk =   0.0039062
        k(  200) = (   0.3750000   0.0000000  -0.1250000), wk =   0.0039062
        k(  201) = (   0.3750000   0.1250000   0.0000000), wk =   0.0039062
        k(  202) = (   0.3750000   0.1250000   0.1250000), wk =   0.0039062
        k(  203) = (   0.3750000   0.1250000   0.2500000), wk =   0.0039062
        k(  204) = (   0.3750000   0.1250000   0.3750000), wk =   0.0039062
        k(  205) = (   0.3750000   0.1250000  -0.5000000), wk =   0.0039062
        k(  206) = (   0.3750000   0.1250000  -0.3750000), wk =   0.0039062
        k(  207) = (   0.3750000   0.1250000  -0.2500000), wk =   0.0039062
        k(  208) = (   0.3750000   0.1250000  -0.1250000), wk =   0.0039062
        k(  209) = (   0.3750000   0.2500000   0.0000000), wk =   0.0039062
        k(  210) = (   0.3750000   0.2500000   0.1250000), wk =   0.0039062
        k(  211) = (   0.3750000   0.2500000   0.2500000), wk =   0.0039062
        k(  212) = (   0.3750000   0.2500000   0.3750000), wk =   0.0039062
        k(  213) = (   0.3750000   0.2500000  -0.5000000), wk =   0.0039062
        k(  214) = (   0.3750000   0.2500000  -0.3750000), wk =   0.0039062
        k(  215) = (   0.3750000   0.2500000  -0.2500000), wk =   0.0039062
        k(  216) = (   0.3750000   0.2500000  -0.1250000), wk =   0.0039062
        k(  217) = (   0.3750000   0.3750000   0.0000000), wk =   0.0039062
        k(  218) = (   0.3750000   0.3750000   0.1250000), wk =   0.0039062
        k(  219) = (   0.3750000   0.3750000   0.2500000), wk =   0.0039062
        k(  220) = (   0.3750000   0.3750000   0.3750000), wk =   0.0039062
        k(  221) = (   0.3750000   0.3750000  -0.5000000), wk =   0.0039062
        k(  222) = (   0.3750000   0.3750000  -0.3750000), wk =   0.0039062
        k(  223) = (   0.3750000   0.3750000  -0.2500000), wk =   0.0039062
        k(  224) = (   0.3750000   0.3750000  -0.1250000), wk =   0.0039062
        k(  225) = (   0.3750000  -0.5000000   0.0000000), wk =   0.0039062
        k(  226) = (   0.3750000  -0.5000000   0.1250000), wk =   0.0039062
        k(  227) = (   0.3750000  -0.5000000   0.2500000), wk =   0.0039062
        k(  228) = (   0.3750000  -0.5000000   0.3750000), wk =   0.0039062
        k(  229) = (   0.3750000  -0.5000000  -0.5000000), wk =   0.0039062
        k(  230) = (   0.3750000  -0.5000000  -0.3750000), wk =   0.0039062
        k(  231) = (   0.3750000  -0.5000000  -0.2500000), wk =   0.0039062
        k(  232) = (   0.3750000  -0.5000000  -0.1250000), wk =   0.0039062
        k(  233) = (   0.3750000  -0.3750000   0.0000000), wk =   0.0039062
        k(  234) = (   0.3750000  -0.3750000   0.1250000), wk =   0.0039062
        k(  235) = (   0.3750000  -0.3750000   0.2500000), wk =   0.0039062
        k(  236) = (   0.3750000  -0.3750000   0.3750000), wk =   0.0039062
        k(  237) = (   0.3750000  -0.3750000  -0.5000000), wk =   0.0039062
        k(  238) = (   0.3750000  -0.3750000  -0.3750000), wk =   0.0039062
        k(  239) = (   0.3750000  -0.3750000  -0.2500000), wk =   0.0039062
        k(  240) = (   0.3750000  -0.3750000  -0.1250000), wk =   0.0039062
        k(  241) = (   0.3750000  -0.2500000   0.0000000), wk =   0.0039062
        k(  242) = (   0.3750000  -0.2500000   0.1250000), wk =   0.0039062
        k(  243) = (   0.3750000  -0.2500000   0.2500000), wk =   0.0039062
        k(  244) = (   0.3750000  -0.2500000   0.3750000), wk =   0.0039062
        k(  245) = (   0.3750000  -0.2500000  -0.5000000), wk =   0.0039062
        k(  246) = (   0.3750000  -0.2500000  -0.3750000), wk =   0.0039062
        k(  247) = (   0.3750000  -0.2500000  -0.2500000), wk =   0.0039062
        k(  248) = (   0.3750000  -0.2500000  -0.1250000), wk =   0.0039062
        k(  249) = (   0.3750000  -0.1250000   0.0000000), wk =   0.0039062
        k(  250) = (   0.3750000  -0.1250000   0.1250000), wk =   0.0039062
        k(  251) = (   0.3750000  -0.1250000   0.2500000), wk =   0.0039062
        k(  252) = (   0.3750000  -0.1250000   0.3750000), wk =   0.0039062
        k(  253) = (   0.3750000  -0.1250000  -0.5000000), wk =   0.0039062
        k(  254) = (   0.3750000  -0.1250000  -0.3750000), wk =   0.0039062
        k(  255) = (   0.3750000  -0.1250000  -0.2500000), wk =   0.0039062
        k(  256) = (   0.3750000  -0.1250000  -0.1250000), wk =   0.0039062
        k(  257) = (  -0.5000000   0.0000000   0.0000000), wk =   0.0039062
        k(  258) = (  -0.5000000   0.0000000   0.1250000), wk =   0.0039062
        k(  259) = (  -0.5000000   0.0000000   0.2500000), wk =   0.0039062
        k(  260) = (  -0.5000000   0.0000000   0.3750000), wk =   0.0039062
        k(  261) = (  -0.5000000   0.0000000  -0.5000000), wk =   0.0039062
        k(  262) = (  -0.5000000   0.0000000  -0.3750000), wk =   0.0039062
        k(  263) = (  -0.5000000   0.0000000  -0.2500000), wk =   0.0039062
        k(  264) = (  -0.5000000   0.0000000  -0.1250000), wk =   0.0039062
        k(  265) = (  -0.5000000   0.1250000   0.0000000), wk =   0.0039062
        k(  266) = (  -0.5000000   0.1250000   0.1250000), wk =   0.0039062
        k(  267) = (  -0.5000000   0.1250000   0.2500000), wk =   0.0039062
        k(  268) = (  -0.5000000   0.1250000   0.3750000), wk =   0.0039062
        k(  269) = (  -0.5000000   0.1250000  -0.5000000), wk =   0.0039062
        k(  270) = (  -0.5000000   0.1250000  -0.3750000), wk =   0.0039062
        k(  271) = (  -0.5000000   0.1250000  -0.2500000), wk =   0.0039062
        k(  272) = (  -0.5000000   0.1250000  -0.1250000), wk =   0.0039062
        k(  273) = (  -0.5000000   0.2500000   0.0000000), wk =   0.0039062
        k(  274) = (  -0.5000000   0.2500000   0.1250000), wk =   0.0039062
        k(  275) = (  -0.5000000   0.2500000   0.2500000), wk =   0.0039062
        k(  276) = (  -0.5000000   0.2500000   0.3750000), wk =   0.0039062
        k(  277) = (  -0.5000000   0.2500000  -0.5000000), wk =   0.0039062
        k(  278) = (  -0.5000000   0.2500000  -0.3750000), wk =   0.0039062
        k(  279) = (  -0.5000000   0.2500000  -0.2500000), wk =   0.0039062
        k(  280) = (  -0.5000000   0.2500000  -0.1250000), wk =   0.0039062
        k(  281) = (  -0.5000000   0.3750000   0.0000000), wk =   0.0039062
        k(  282) = (  -0.5000000   0.3750000   0.1250000), wk =   0.0039062
        k(  283) = (  -0.5000000   0.3750000   0.2500000), wk =   0.0039062
        k(  284) = (  -0.5000000   0.3750000   0.3750000), wk =   0.0039062
        k(  285) = (  -0.5000000   0.3750000  -0.5000000), wk =   0.0039062
        k(  286) = (  -0.5000000   0.3750000  -0.3750000), wk =   0.0039062
        k(  287) = (  -0.5000000   0.3750000  -0.2500000), wk =   0.0039062
        k(  288) = (  -0.5000000   0.3750000  -0.1250000), wk =   0.0039062
        k(  289) = (  -0.5000000  -0.5000000   0.0000000), wk =   0.0039062
        k(  290) = (  -0.5000000  -0.5000000   0.1250000), wk =   0.0039062
        k(  291) = (  -0.5000000  -0.5000000   0.2500000), wk =   0.0039062
        k(  292) = (  -0.5000000  -0.5000000   0.3750000), wk =   0.0039062
        k(  293) = (  -0.5000000  -0.5000000  -0.5000000), wk =   0.0039062
        k(  294) = (  -0.5000000  -0.5000000  -0.3750000), wk =   0.0039062
        k(  295) = (  -0.5000000  -0.5000000  -0.2500000), wk =   0.0039062
        k(  296) = (  -0.5000000  -0.5000000  -0.1250000), wk =   0.0039062
        k(  297) = (  -0.5000000  -0.3750000   0.0000000), wk =   0.0039062
        k(  298) = (  -0.5000000  -0.3750000   0.1250000), wk =   0.0039062
        k(  299) = (  -0.5000000  -0.3750000   0.2500000), wk =   0.0039062
        k(  300) = (  -0.5000000  -0.3750000   0.3750000), wk =   0.0039062
        k(  301) = (  -0.5000000  -0.3750000  -0.5000000), wk =   0.0039062
        k(  302) = (  -0.5000000  -0.3750000  -0.3750000), wk =   0.0039062
        k(  303) = (  -0.5000000  -0.3750000  -0.2500000), wk =   0.0039062
        k(  304) = (  -0.5000000  -0.3750000  -0.1250000), wk =   0.0039062
        k(  305) = (  -0.5000000  -0.2500000   0.0000000), wk =   0.0039062
        k(  306) = (  -0.5000000  -0.2500000   0.1250000), wk =   0.0039062
        k(  307) = (  -0.5000000  -0.2500000   0.2500000), wk =   0.0039062
        k(  308) = (  -0.5000000  -0.2500000   0.3750000), wk =   0.0039062
        k(  309) = (  -0.5000000  -0.2500000  -0.5000000), wk =   0.0039062
        k(  310) = (  -0.5000000  -0.2500000  -0.3750000), wk =   0.0039062
        k(  311) = (  -0.5000000  -0.2500000  -0.2500000), wk =   0.0039062
        k(  312) = (  -0.5000000  -0.2500000  -0.1250000), wk =   0.0039062
        k(  313) = (  -0.5000000  -0.1250000   0.0000000), wk =   0.0039062
        k(  314) = (  -0.5000000  -0.1250000   0.1250000), wk =   0.0039062
        k(  315) = (  -0.5000000  -0.1250000   0.2500000), wk =   0.0039062
        k(  316) = (  -0.5000000  -0.1250000   0.3750000), wk =   0.0039062
        k(  317) = (  -0.5000000  -0.1250000  -0.5000000), wk =   0.0039062
        k(  318) = (  -0.5000000  -0.1250000  -0.3750000), wk =   0.0039062
        k(  319) = (  -0.5000000  -0.1250000  -0.2500000), wk =   0.0039062
        k(  320) = (  -0.5000000  -0.1250000  -0.1250000), wk =   0.0039062
        k(  321) = (  -0.3750000   0.0000000   0.0000000), wk =   0.0039062
        k(  322) = (  -0.3750000   0.0000000   0.1250000), wk =   0.0039062
        k(  323) = (  -0.3750000   0.0000000   0.2500000), wk =   0.0039062
        k(  324) = (  -0.3750000   0.0000000   0.3750000), wk =   0.0039062
        k(  325) = (  -0.3750000   0.0000000  -0.5000000), wk =   0.0039062
        k(  326) = (  -0.3750000   0.0000000  -0.3750000), wk =   0.0039062
        k(  327) = (  -0.3750000   0.0000000  -0.2500000), wk =   0.0039062
        k(  328) = (  -0.3750000   0.0000000  -0.1250000), wk =   0.0039062
        k(  329) = (  -0.3750000   0.1250000   0.0000000), wk =   0.0039062
        k(  330) = (  -0.3750000   0.1250000   0.1250000), wk =   0.0039062
        k(  331) = (  -0.3750000   0.1250000   0.2500000), wk =   0.0039062
        k(  332) = (  -0.3750000   0.1250000   0.3750000), wk =   0.0039062
        k(  333) = (  -0.3750000   0.1250000  -0.5000000), wk =   0.0039062
        k(  334) = (  -0.3750000   0.1250000  -0.3750000), wk =   0.0039062
        k(  335) = (  -0.3750000   0.1250000  -0.2500000), wk =   0.0039062
        k(  336) = (  -0.3750000   0.1250000  -0.1250000), wk =   0.0039062
        k(  337) = (  -0.3750000   0.2500000   0.0000000), wk =   0.0039062
        k(  338) = (  -0.3750000   0.2500000   0.1250000), wk =   0.0039062
        k(  339) = (  -0.3750000   0.2500000   0.2500000), wk =   0.0039062
        k(  340) = (  -0.3750000   0.2500000   0.3750000), wk =   0.0039062
        k(  341) = (  -0.3750000   0.2500000  -0.5000000), wk =   0.0039062
        k(  342) = (  -0.3750000   0.2500000  -0.3750000), wk =   0.0039062
        k(  343) = (  -0.3750000   0.2500000  -0.2500000), wk =   0.0039062
        k(  344) = (  -0.3750000   0.2500000  -0.1250000), wk =   0.0039062
        k(  345) = (  -0.3750000   0.3750000   0.0000000), wk =   0.0039062
        k(  346) = (  -0.3750000   0.3750000   0.1250000), wk =   0.0039062
        k(  347) = (  -0.3750000   0.3750000   0.2500000), wk =   0.0039062
        k(  348) = (  -0.3750000   0.3750000   0.3750000), wk =   0.0039062
        k(  349) = (  -0.3750000   0.3750000  -0.5000000), wk =   0.0039062
        k(  350) = (  -0.3750000   0.3750000  -0.3750000), wk =   0.0039062
        k(  351) = (  -0.3750000   0.3750000  -0.2500000), wk =   0.0039062
        k(  352) = (  -0.3750000   0.3750000  -0.1250000), wk =   0.0039062
        k(  353) = (  -0.3750000  -0.5000000   0.0000000), wk =   0.0039062
        k(  354) = (  -0.3750000  -0.5000000   0.1250000), wk =   0.0039062
        k(  355) = (  -0.3750000  -0.5000000   0.2500000), wk =   0.0039062
        k(  356) = (  -0.3750000  -0.5000000   0.3750000), wk =   0.0039062
        k(  357) = (  -0.3750000  -0.5000000  -0.5000000), wk =   0.0039062
        k(  358) = (  -0.3750000  -0.5000000  -0.3750000), wk =   0.0039062
        k(  359) = (  -0.3750000  -0.5000000  -0.2500000), wk =   0.0039062
        k(  360) = (  -0.3750000  -0.5000000  -0.1250000), wk =   0.0039062
        k(  361) = (  -0.3750000  -0.3750000   0.0000000), wk =   0.0039062
        k(  362) = (  -0.3750000  -0.3750000   0.1250000), wk =   0.0039062
        k(  363) = (  -0.3750000  -0.3750000   0.2500000), wk =   0.0039062
        k(  364) = (  -0.3750000  -0.3750000   0.3750000), wk =   0.0039062
        k(  365) = (  -0.3750000  -0.3750000  -0.5000000), wk =   0.0039062
        k(  366) = (  -0.3750000  -0.3750000  -0.3750000), wk =   0.0039062
        k(  367) = (  -0.3750000  -0.3750000  -0.2500000), wk =   0.0039062
        k(  368) = (  -0.3750000  -0.3750000  -0.1250000), wk =   0.0039062
        k(  369) = (  -0.3750000  -0.2500000   0.0000000), wk =   0.0039062
        k(  370) = (  -0.3750000  -0.2500000   0.1250000), wk =   0.0039062
        k(  371) = (  -0.3750000  -0.2500000   0.2500000), wk =   0.0039062
        k(  372) = (  -0.3750000  -0.2500000   0.3750000), wk =   0.0039062
        k(  373) = (  -0.3750000  -0.2500000  -0.5000000), wk =   0.0039062
        k(  374) = (  -0.3750000  -0.2500000  -0.3750000), wk =   0.0039062
        k(  375) = (  -0.3750000  -0.2500000  -0.2500000), wk =   0.0039062
        k(  376) = (  -0.3750000  -0.2500000  -0.1250000), wk =   0.0039062
        k(  377) = (  -0.3750000  -0.1250000   0.0000000), wk =   0.0039062
        k(  378) = (  -0.3750000  -0.1250000   0.1250000), wk =   0.0039062
        k(  379) = (  -0.3750000  -0.1250000   0.2500000), wk =   0.0039062
        k(  380) = (  -0.3750000  -0.1250000   0.3750000), wk =   0.0039062
        k(  381) = (  -0.3750000  -0.1250000  -0.5000000), wk =   0.0039062
        k(  382) = (  -0.3750000  -0.1250000  -0.3750000), wk =   0.0039062
        k(  383) = (  -0.3750000  -0.1250000  -0.2500000), wk =   0.0039062
        k(  384) = (  -0.3750000  -0.1250000  -0.1250000), wk =   0.0039062
        k(  385) = (  -0.2500000   0.0000000   0.0000000), wk =   0.0039062
        k(  386) = (  -0.2500000   0.0000000   0.1250000), wk =   0.0039062
        k(  387) = (  -0.2500000   0.0000000   0.2500000), wk =   0.0039062
        k(  388) = (  -0.2500000   0.0000000   0.3750000), wk =   0.0039062
        k(  389) = (  -0.2500000   0.0000000  -0.5000000), wk =   0.0039062
        k(  390) = (  -0.2500000   0.0000000  -0.3750000), wk =   0.0039062
        k(  391) = (  -0.2500000   0.0000000  -0.2500000), wk =   0.0039062
        k(  392) = (  -0.2500000   0.0000000  -0.1250000), wk =   0.0039062
        k(  393) = (  -0.2500000   0.1250000   0.0000000), wk =   0.0039062
        k(  394) = (  -0.2500000   0.1250000   0.1250000), wk =   0.0039062
        k(  395) = (  -0.2500000   0.1250000   0.2500000), wk =   0.0039062
        k(  396) = (  -0.2500000   0.1250000   0.3750000), wk =   0.0039062
        k(  397) = (  -0.2500000   0.1250000  -0.5000000), wk =   0.0039062
        k(  398) = (  -0.2500000   0.1250000  -0.3750000), wk =   0.0039062
        k(  399) = (  -0.2500000   0.1250000  -0.2500000), wk =   0.0039062
        k(  400) = (  -0.2500000   0.1250000  -0.1250000), wk =   0.0039062
        k(  401) = (  -0.2500000   0.2500000   0.0000000), wk =   0.0039062
        k(  402) = (  -0.2500000   0.2500000   0.1250000), wk =   0.0039062
        k(  403) = (  -0.2500000   0.2500000   0.2500000), wk =   0.0039062
        k(  404) = (  -0.2500000   0.2500000   0.3750000), wk =   0.0039062
        k(  405) = (  -0.2500000   0.2500000  -0.5000000), wk =   0.0039062
        k(  406) = (  -0.2500000   0.2500000  -0.3750000), wk =   0.0039062
        k(  407) = (  -0.2500000   0.2500000  -0.2500000), wk =   0.0039062
        k(  408) = (  -0.2500000   0.2500000  -0.1250000), wk =   0.0039062
        k(  409) = (  -0.2500000   0.3750000   0.0000000), wk =   0.0039062
        k(  410) = (  -0.2500000   0.3750000   0.1250000), wk =   0.0039062
        k(  411) = (  -0.2500000   0.3750000   0.2500000), wk =   0.0039062
        k(  412) = (  -0.2500000   0.3750000   0.3750000), wk =   0.0039062
        k(  413) = (  -0.2500000   0.3750000  -0.5000000), wk =   0.0039062
        k(  414) = (  -0.2500000   0.3750000  -0.3750000), wk =   0.0039062
        k(  415) = (  -0.2500000   0.3750000  -0.2500000), wk =   0.0039062
        k(  416) = (  -0.2500000   0.3750000  -0.1250000), wk =   0.0039062
        k(  417) = (  -0.2500000  -0.5000000   0.0000000), wk =   0.0039062
        k(  418) = (  -0.2500000  -0.5000000   0.1250000), wk =   0.0039062
        k(  419) = (  -0.2500000  -0.5000000   0.2500000), wk =   0.0039062
        k(  420) = (  -0.2500000  -0.5000000   0.3750000), wk =   0.0039062
        k(  421) = (  -0.2500000  -0.5000000  -0.5000000), wk =   0.0039062
        k(  422) = (  -0.2500000  -0.5000000  -0.3750000), wk =   0.0039062
        k(  423) = (  -0.2500000  -0.5000000  -0.2500000), wk =   0.0039062
        k(  424) = (  -0.2500000  -0.5000000  -0.1250000), wk =   0.0039062
        k(  425) = (  -0.2500000  -0.3750000   0.0000000), wk =   0.0039062
        k(  426) = (  -0.2500000  -0.3750000   0.1250000), wk =   0.0039062
        k(  427) = (  -0.2500000  -0.3750000   0.2500000), wk =   0.0039062
        k(  428) = (  -0.2500000  -0.3750000   0.3750000), wk =   0.0039062
        k(  429) = (  -0.2500000  -0.3750000  -0.5000000), wk =   0.0039062
        k(  430) = (  -0.2500000  -0.3750000  -0.3750000), wk =   0.0039062
        k(  431) = (  -0.2500000  -0.3750000  -0.2500000), wk =   0.0039062
        k(  432) = (  -0.2500000  -0.3750000  -0.1250000), wk =   0.0039062
        k(  433) = (  -0.2500000  -0.2500000   0.0000000), wk =   0.0039062
        k(  434) = (  -0.2500000  -0.2500000   0.1250000), wk =   0.0039062
        k(  435) = (  -0.2500000  -0.2500000   0.2500000), wk =   0.0039062
        k(  436) = (  -0.2500000  -0.2500000   0.3750000), wk =   0.0039062
        k(  437) = (  -0.2500000  -0.2500000  -0.5000000), wk =   0.0039062
        k(  438) = (  -0.2500000  -0.2500000  -0.3750000), wk =   0.0039062
        k(  439) = (  -0.2500000  -0.2500000  -0.2500000), wk =   0.0039062
        k(  440) = (  -0.2500000  -0.2500000  -0.1250000), wk =   0.0039062
        k(  441) = (  -0.2500000  -0.1250000   0.0000000), wk =   0.0039062
        k(  442) = (  -0.2500000  -0.1250000   0.1250000), wk =   0.0039062
        k(  443) = (  -0.2500000  -0.1250000   0.2500000), wk =   0.0039062
        k(  444) = (  -0.2500000  -0.1250000   0.3750000), wk =   0.0039062
        k(  445) = (  -0.2500000  -0.1250000  -0.5000000), wk =   0.0039062
        k(  446) = (  -0.2500000  -0.1250000  -0.3750000), wk =   0.0039062
        k(  447) = (  -0.2500000  -0.1250000  -0.2500000), wk =   0.0039062
        k(  448) = (  -0.2500000  -0.1250000  -0.1250000), wk =   0.0039062
        k(  449) = (  -0.1250000   0.0000000   0.0000000), wk =   0.0039062
        k(  450) = (  -0.1250000   0.0000000   0.1250000), wk =   0.0039062
        k(  451) = (  -0.1250000   0.0000000   0.2500000), wk =   0.0039062
        k(  452) = (  -0.1250000   0.0000000   0.3750000), wk =   0.0039062
        k(  453) = (  -0.1250000   0.0000000  -0.5000000), wk =   0.0039062
        k(  454) = (  -0.1250000   0.0000000  -0.3750000), wk =   0.0039062
        k(  455) = (  -0.1250000   0.0000000  -0.2500000), wk =   0.0039062
        k(  456) = (  -0.1250000   0.0000000  -0.1250000), wk =   0.0039062
        k(  457) = (  -0.1250000   0.1250000   0.0000000), wk =   0.0039062
        k(  458) = (  -0.1250000   0.1250000   0.1250000), wk =   0.0039062
        k(  459) = (  -0.1250000   0.1250000   0.2500000), wk =   0.0039062
        k(  460) = (  -0.1250000   0.1250000   0.3750000), wk =   0.0039062
        k(  461) = (  -0.1250000   0.1250000  -0.5000000), wk =   0.0039062
        k(  462) = (  -0.1250000   0.1250000  -0.3750000), wk =   0.0039062
        k(  463) = (  -0.1250000   0.1250000  -0.2500000), wk =   0.0039062
        k(  464) = (  -0.1250000   0.1250000  -0.1250000), wk =   0.0039062
        k(  465) = (  -0.1250000   0.2500000   0.0000000), wk =   0.0039062
        k(  466) = (  -0.1250000   0.2500000   0.1250000), wk =   0.0039062
        k(  467) = (  -0.1250000   0.2500000   0.2500000), wk =   0.0039062
        k(  468) = (  -0.1250000   0.2500000   0.3750000), wk =   0.0039062
        k(  469) = (  -0.1250000   0.2500000  -0.5000000), wk =   0.0039062
        k(  470) = (  -0.1250000   0.2500000  -0.3750000), wk =   0.0039062
        k(  471) = (  -0.1250000   0.2500000  -0.2500000), wk =   0.0039062
        k(  472) = (  -0.1250000   0.2500000  -0.1250000), wk =   0.0039062
        k(  473) = (  -0.1250000   0.3750000   0.0000000), wk =   0.0039062
        k(  474) = (  -0.1250000   0.3750000   0.1250000), wk =   0.0039062
        k(  475) = (  -0.1250000   0.3750000   0.2500000), wk =   0.0039062
        k(  476) = (  -0.1250000   0.3750000   0.3750000), wk =   0.0039062
        k(  477) = (  -0.1250000   0.3750000  -0.5000000), wk =   0.0039062
        k(  478) = (  -0.1250000   0.3750000  -0.3750000), wk =   0.0039062
        k(  479) = (  -0.1250000   0.3750000  -0.2500000), wk =   0.0039062
        k(  480) = (  -0.1250000   0.3750000  -0.1250000), wk =   0.0039062
        k(  481) = (  -0.1250000  -0.5000000   0.0000000), wk =   0.0039062
        k(  482) = (  -0.1250000  -0.5000000   0.1250000), wk =   0.0039062
        k(  483) = (  -0.1250000  -0.5000000   0.2500000), wk =   0.0039062
        k(  484) = (  -0.1250000  -0.5000000   0.3750000), wk =   0.0039062
        k(  485) = (  -0.1250000  -0.5000000  -0.5000000), wk =   0.0039062
        k(  486) = (  -0.1250000  -0.5000000  -0.3750000), wk =   0.0039062
        k(  487) = (  -0.1250000  -0.5000000  -0.2500000), wk =   0.0039062
[...]

    -2.6827  -0.5304   9.2308  13.9395  16.1361  18.0866  18.2324  20.0527

     occupation numbers 
     1.0000   1.0000   1.0000   0.0000   0.0000   0.0000   0.0000   0.0000

          k =-0.1250 0.0722-0.1463 (   815 PWs)   bands (ev):

    -3.1175   0.5159   7.1529  15.7635  16.3664  17.8872  18.9036  20.7922

     occupation numbers 
     1.0000   1.0000   1.0000   0.0000   0.0000   0.0000   0.0000   0.0000

          k =-0.1250 0.0722-0.0731 (   820 PWs)   bands (ev):

    -3.4059   1.7983   5.2679  15.5281  17.6501  18.5402  19.7774  21.5201

     occupation numbers 
     1.0000   1.0000   1.0000   0.0000   0.0000   0.0000   0.0000   0.0000

          k =-0.1250 0.2165 0.0000 (   819 PWs)   bands (ev):

    -2.6725   3.6954   4.7806  12.9451  13.6442  18.6011  18.6928  19.0739

     occupation numbers 
     1.0000   1.0000   1.0000   0.0000   0.0000   0.0000   0.0000   0.0000

          k =-0.1250 0.2165 0.0731 (   820 PWs)   bands (ev):

    -2.5743   2.6162   6.0536  13.0384  13.7243  17.7070  18.1405  19.1508

     occupation numbers 
     1.0000   1.0000   1.0000   0.0000   0.0000   0.0000   0.0000   0.0000

          k =-0.1250 0.2165 0.1463 (   819 PWs)   bands (ev):

    -2.2872   1.3378   7.9203  13.2955  13.9468  16.6214  17.0568  17.4445

     occupation numbers 
     1.0000   1.0000   1.0000   0.0000   0.0000   0.0000   0.0000   0.0000

          k =-0.1250 0.2165 0.2194 (   824 PWs)   bands (ev):

    -1.8547   0.2956   9.9616  13.6752  14.0386  15.1135  15.7341  16.4502

     occupation numbers 
     1.0000   1.0000   1.0000   0.0000   0.0000   0.0000   0.0000   0.0000

          k =-0.1250 0.2165-0.2925 (   820 PWs)   bands (ev):

    -1.5449  -0.2188  11.7803  12.5942  13.9802  14.8150  15.3043  16.0357

     occupation numbers 
     1.0000   1.0000   0.0000   0.0000   0.0000   0.0000   0.0000   0.0000

          k =-0.1250 0.2165-0.2194 (   824 PWs)   bands (ev):

    -1.8542   0.2942   9.9870  13.4834  14.1626  15.1707  15.7236  16.4514

     occupation numbers 
     1.0000   1.0000   1.0000   0.0000   0.0000   0.0000   0.0000   0.0000

          k =-0.1250 0.2165-0.1463 (   819 PWs)   bands (ev):

    -2.2868   1.3355   7.9336  13.2494  13.9580  16.5815  17.1249  17.4547

     occupation numbers 
     1.0000   1.0000   1.0000   0.0000   0.0000   0.0000   0.0000   0.0000

          k =-0.1250 0.2165-0.0731 (   820 PWs)   bands (ev):

    -2.5741   2.6130   6.0615  13.0219  13.7273  17.6779  18.1508  19.2165

     occupation numbers 
     1.0000   1.0000   1.0000   0.0000   0.0000   0.0000   0.0000   0.0000

          k =-0.1250 0.3608 0.0000 (   829 PWs)   bands (ev):

    -1.0195   5.3033   6.3471   8.6737  11.8162  14.5567  15.7346  17.3239

     occupation numbers 
     1.0000   1.0000   1.0000   1.0000   0.0000   0.0000   0.0000   0.0000

          k =-0.1250 0.3608 0.0731 (   826 PWs)   bands (ev):

    -0.9221   4.2334   7.5700   8.7941  11.9036  13.7391  16.0677  17.3119

     occupation numbers 
     1.0000   1.0000   1.0000   1.0000   0.0000   0.0000   0.0000   0.0000

          k =-0.1250 0.3608 0.1463 (   828 PWs)   bands (ev):

    -0.6379   2.9660   8.8867   9.5343  12.1528  12.6576  15.3630  17.8774

     occupation numbers 
     1.0000   1.0000   1.0000   1.0000   0.0000   0.0000   0.0000   0.0000

          k =-0.1250 0.3608 0.2194 (   831 PWs)   bands (ev):

    -0.2098   1.9334   9.3529  10.9502  12.2364  12.5284  14.5140  16.2439

     occupation numbers 
     1.0000   1.0000   1.0000   0.0061   0.0000   0.0000   0.0000   0.0000

          k =-0.1250 0.3608-0.2925 (   834 PWs)   bands (ev):

     0.0953   1.4247   9.6250  10.9343  12.7166  13.5918  13.9435  14.6268

     occupation numbers 
     1.0000   1.0000   1.0000   0.0113   0.0000   0.0000   0.0000   0.0000

          k =-0.1250 0.3608-0.2194 (   831 PWs)   bands (ev):

    -0.2088   1.9303   9.3817  11.0641  11.8972  12.6402  14.5888  16.3098

     occupation numbers 
     1.0000   1.0000   1.0000   0.0001   0.0000   0.0000   0.0000   0.0000

          k =-0.1250 0.3608-0.1463 (   828 PWs)   bands (ev):

    -0.6371   2.9604   9.0077   9.4402  12.1111  12.5934  15.4604  17.9534

     occupation numbers 
     1.0000   1.0000   1.0000   1.0000   0.0000   0.0000   0.0000   0.0000

          k =-0.1250 0.3608-0.0731 (   826 PWs)   bands (ev):

    -0.9218   4.2243   7.6230   8.7538  11.9005  13.6536  16.2842  17.2026

     occupation numbers 
     1.0000   1.0000   1.0000   1.0000   0.0000   0.0000   0.0000   0.0000

          k =-0.1250-0.6495 0.0000 (   835 PWs)   bands (ev):

     1.4168   4.7186   7.6967   8.5618  10.7355  11.1359  12.2581  16.6272

     occupation numbers 
     1.0000   1.0000   1.0000   1.0000   0.9635   0.0000   0.0000   0.0000

          k =-0.1250-0.6495 0.0731 (   834 PWs)   bands (ev):

     1.5124   4.8136   6.6258   9.2463  10.5634  11.1446  13.1892  16.0158

     occupation numbers 
     1.0000   1.0000   1.0000   1.0000   1.0000   0.0000   0.0000   0.0000

          k =-0.1250-0.6495 0.1463 (   830 PWs)   bands (ev):

     1.7921   5.0637   5.4010   8.4962  11.3508  12.0178  14.1915  15.6412

     occupation numbers 
     1.0000   1.0000   1.0000   1.0000   0.0000   0.0000   0.0000   0.0000

          k =-0.1250-0.6495 0.2194 (   825 PWs)   bands (ev):

     2.2113   4.3449   5.5137   7.5708  11.7480  13.6783  13.9341  16.8270

     occupation numbers 
     1.0000   1.0000   1.0000   1.0000   0.0000   0.0000   0.0000   0.0000

          k =-0.1250-0.6495-0.2925 (   834 PWs)   bands (ev):

     2.5082   3.8470   5.8022   7.1033  12.0061  13.2889  15.5507  16.3829

     occupation numbers 
     1.0000   1.0000   1.0000   1.0000   0.0000   0.0000   0.0000   0.0000

          k =-0.1250-0.6495-0.2194 (   825 PWs)   bands (ev):

     2.2141   4.3268   5.5297   7.5795  11.7457  13.5067  14.0761  16.9018

     occupation numbers 
     1.0000   1.0000   1.0000   1.0000   0.0000   0.0000   0.0000   0.0000

          k =-0.1250-0.6495-0.1463 (   830 PWs)   bands (ev):

     1.7940   5.0084   5.4521   8.5342  11.3294  11.9093  14.3679  15.5641

     occupation numbers 
     1.0000   1.0000   1.0000   1.0000   0.0000   0.0000   0.0000   0.0000

          k =-0.1250-0.6495-0.0731 (   834 PWs)   bands (ev):

     1.5133   4.8050   6.6235   9.4242  10.2885  11.1784  13.2999  15.9785

     occupation numbers 
     1.0000   1.0000   1.0000   1.0000   1.0000   0.0000   0.0000   0.0000

          k =-0.1250-0.5052 0.0000 (   835 PWs)   bands (ev):

     1.4107   4.7299   7.6981   8.5280  10.7252  11.1451  12.3252  16.6263

     occupation numbers 
     1.0000   1.0000   1.0000   1.0000   0.9752   0.0000   0.0000   0.0000

          k =-0.1250-0.5052 0.0731 (   834 PWs)   bands (ev):

     1.5070   4.8163   6.6202   9.4201  10.2411  11.1923  13.3979  15.9407

     occupation numbers 
     1.0000   1.0000   1.0000   1.0000   1.0000   0.0000   0.0000   0.0000

          k =-0.1250-0.5052 0.1463 (   830 PWs)   bands (ev):

     1.7874   5.0186   5.4491   8.5479  11.2387  11.9064  14.7382  15.2928

     occupation numbers 
     1.0000   1.0000   1.0000   1.0000   0.0000   0.0000   0.0000   0.0000

          k =-0.1250-0.5052 0.2194 (   825 PWs)   bands (ev):

     2.2070   4.3238   5.5404   7.5906  11.6999  13.2547  14.4810  16.8327

     occupation numbers 
     1.0000   1.0000   1.0000   1.0000   0.0000   0.0000   0.0000   0.0000

          k =-0.1250-0.5052-0.2925 (   834 PWs)   bands (ev):

     2.5009   3.8427   5.8151   7.1113  11.9628  13.2422  15.6551  16.5300

     occupation numbers 
     1.0000   1.0000   1.0000   1.0000   0.0000   0.0000   0.0000   0.0000

          k =-0.1250-0.5052-0.2194 (   825 PWs)   bands (ev):

     2.2051   4.3384   5.5259   7.5786  11.7257  13.4123  14.2812  16.7869

     occupation numbers 
     1.0000   1.0000   1.0000   1.0000   0.0000   0.0000   0.0000   0.0000

          k =-0.1250-0.5052-0.1463 (   830 PWs)   bands (ev):

     1.7862   5.0746   5.3928   8.5031  11.3605  11.9374  14.4483  15.4458

     occupation numbers 
     1.0000   1.0000   1.0000   1.0000   0.0000   0.0000   0.0000   0.0000

          k =-0.1250-0.5052-0.0731 (   834 PWs)   bands (ev):

     1.5064   4.8249   6.6148   9.2407  10.5634  11.1271  13.2818  15.9648

     occupation numbers 
     1.0000   1.0000   1.0000   1.0000   1.0000   0.0000   0.0000   0.0000

          k =-0.1250-0.3608 0.0000 (   829 PWs)   bands (ev):

    -1.0232   5.3046   6.3278   8.6996  11.7742  14.5570  15.9554  17.3264

     occupation numbers 
     1.0000   1.0000   1.0000   1.0000   0.0000   0.0000   0.0000   0.0000

          k =-0.1250-0.3608 0.0731 (   826 PWs)   bands (ev):

    -0.9258   4.2230   7.5992   8.7799  11.8643  13.6836  16.5843  17.0304

     occupation numbers 
     1.0000   1.0000   1.0000   1.0000   0.0000   0.0000   0.0000   0.0000

          k =-0.1250-0.3608 0.1463 (   828 PWs)   bands (ev):

    -0.6413   2.9583   9.0345   9.3983  12.0816  12.6227  15.5696  18.0166

     occupation numbers 
     1.0000   1.0000   1.0000   1.0000   0.0000   0.0000   0.0000   0.0000

          k =-0.1250-0.3608 0.2194 (   831 PWs)   bands (ev):

    -0.2132   1.9280   9.4098  11.0265  11.8074  12.6826  14.6774  16.4458

     occupation numbers 
     1.0000   1.0000   1.0000   0.0003   0.0000   0.0000   0.0000   0.0000

          k =-0.1250-0.3608-0.2925 (   834 PWs)   bands (ev):

     0.0909   1.4219   9.6559  10.9501  12.4605  13.6479  13.9055  14.9831

     occupation numbers 
     1.0000   1.0000   1.0000   0.0061   0.0000   0.0000   0.0000   0.0000

          k =-0.1250-0.3608-0.2194 (   831 PWs)   bands (ev):

    -0.2136   1.9293   9.3836  10.9320  12.1977  12.4607  14.6090  16.4318

     occupation numbers 
     1.0000   1.0000   1.0000   0.0123   0.0000   0.0000   0.0000   0.0000

          k =-0.1250-0.3608-0.1463 (   828 PWs)   bands (ev):

    -0.6415   2.9610   8.9111   9.5188  12.0884  12.6810  15.4820  17.9539

     occupation numbers 
     1.0000   1.0000   1.0000   1.0000   0.0000   0.0000   0.0000   0.0000

          k =-0.1250-0.3608-0.0731 (   826 PWs)   bands (ev):

    -0.9258   4.2278   7.5610   8.8175  11.8529  13.7608  16.3298  17.1933

     occupation numbers 
     1.0000   1.0000   1.0000   1.0000   0.0000   0.0000   0.0000   0.0000

          k =-0.1250-0.2165 0.0000 (   819 PWs)   bands (ev):

    -2.6746   3.6958   4.7712  13.2097  13.3431  18.5937  18.6753  19.5816

     occupation numbers 
     1.0000   1.0000   1.0000   0.0000   0.0000   0.0000   0.0000   0.0000

          k =-0.1250-0.2165 0.0731 (   820 PWs)   bands (ev):

    -2.5764   2.6128   6.0493  13.2960  13.4187  17.8481  18.1002  19.3851

     occupation numbers 
     1.0000   1.0000   1.0000   0.0000   0.0000   0.0000   0.0000   0.0000

          k =-0.1250-0.2165 0.1463 (   819 PWs)   bands (ev):

    -2.2892   1.3348   7.9141  13.5352  13.6255  16.8042  17.0157  17.5732

     occupation numbers 
     1.0000   1.0000   1.0000   0.0000   0.0000   0.0000   0.0000   0.0000

          k =-0.1250-0.2165 0.2194 (   824 PWs)   bands (ev):

    -1.8567   0.2931   9.9475  13.6235  13.9575  15.2751  15.9175  16.3964

     occupation numbers 
     1.0000   1.0000   1.0000   0.0000   0.0000   0.0000   0.0000   0.0000

          k =-0.1250-0.2165-0.2925 (   820 PWs)   bands (ev):

    -1.5472  -0.2204  11.7000  12.5404  14.2169  14.7045  15.4850  15.9968

     occupation numbers 
     1.0000   1.0000   0.0000   0.0000   0.0000   0.0000   0.0000   0.0000

          k =-0.1250-0.2165-0.2194 (   824 PWs)   bands (ev):

    -1.8567   0.2931   9.9469  13.6280  13.9554  15.2721  15.9183  16.3968

     occupation numbers 
     1.0000   1.0000   1.0000   0.0000   0.0000   0.0000   0.0000   0.0000

          k =-0.1250-0.2165-0.1463 (   819 PWs)   bands (ev):

    -2.2892   1.3348   7.9138  13.5383  13.6236  16.8052  17.0132  17.5735

     occupation numbers 
     1.0000   1.0000   1.0000   0.0000   0.0000   0.0000   0.0000   0.0000

          k =-0.1250-0.2165-0.0731 (   820 PWs)   bands (ev):

    -2.5764   2.6128   6.0491  13.2968  13.4184  17.8497  18.0982  19.3841

     occupation numbers 
     1.0000   1.0000   1.0000   0.0000   0.0000   0.0000   0.0000   0.0000

     the Fermi energy is    10.8195 ev

!    total energy              =     -15.77799107 Ry
     estimated scf accuracy    <       0.00964076 Ry
     smearing contrib. (-TS)   =      -0.00010605 Ry
     internal energy E=F+TS    =     -15.77788502 Ry

     The total energy is F=E-TS. E is the sum of the following terms:
     one-electron contribution =       9.03294561 Ry
     hartree contribution      =       0.13744738 Ry
     xc contribution           =      -4.91236639 Ry
     ewald contribution        =     -20.03591161 Ry

     convergence has been achieved in   1 iterations

     Forces acting on atoms (cartesian axes, Ry/au):

     atom    1 type  1   force =     0.00393599   -0.00233847    0.02431239
     atom    2 type  1   force =    -0.00393599    0.00233847   -0.02431239
     The non-local contrib.  to forces
     atom    1 type  1   force =    -0.01776369    0.01064230    0.07484552
     atom    2 type  1   force =     0.01775400   -0.01064137   -0.07483340
     The ionic contribution  to forces
     atom    1 type  1   force =    -0.02724364    0.01657263    0.53592310
     atom    2 type  1   force =     0.02724364   -0.01657263   -0.53592310
     The local contribution  to forces
     atom    1 type  1   force =     0.05078708   -0.03065655   -0.65111428
     atom    2 type  1   force =    -0.05078316    0.03065489    0.65110786
     The core correction contribution to forces
     atom    1 type  1   force =     0.00000000    0.00000000    0.00000000
     atom    2 type  1   force =     0.00000000    0.00000000    0.00000000
     The Hubbard contrib.    to forces
     atom    1 type  1   force =     0.00000000    0.00000000    0.00000000
     atom    2 type  1   force =     0.00000000    0.00000000    0.00000000
     The SCF correction term to forces
     atom    1 type  1   force =    -0.00184670    0.00110279    0.06466090
     atom    2 type  1   force =     0.00184658   -0.00110277   -0.06466091

     Total force =     0.034987     Total SCF correction =     0.091495
     SCF correction compared to forces is large: reduce conv_thr to get better values


     Computing stress (Cartesian axis) and pressure

          total   stress  (Ry/bohr**3)                   (kbar)     P=      -26.39
  -0.00054976   0.00007817  -0.00002043          -80.87       11.50       -3.00
   0.00007817  -0.00044963   0.00001268           11.50      -66.14        1.87
  -0.00002043   0.00001268   0.00046118           -3.00        1.87       67.84

     kinetic stress (kbar)   3145.14     15.75     -2.40
                               15.75   3165.87      1.50
                               -2.40      1.50   3304.93

     local   stress (kbar)  -1068.92     72.70     40.50
                               72.70   -973.52    -24.63
                               40.50    -24.63   -471.00

     nonloc. stress (kbar)   3780.70     -2.40    -13.63
                               -2.40   3777.51      8.29
                              -13.63      8.29   3762.27

     hartree stress (kbar)     78.58     -5.62      0.04
                               -5.62     71.19     -0.02
                                0.04     -0.02    -45.45

     exc-cor stress (kbar)  -1133.28      0.00      0.00
                                0.00  -1133.28      0.00
                                0.00      0.00  -1133.28

     corecor stress (kbar)      0.00      0.00      0.00
                                0.00      0.00      0.00
                                0.00      0.00      0.00

     ewald   stress (kbar)  -4883.08    -68.94    -27.51
                              -68.94  -4973.91     16.72
                              -27.51     16.72  -5349.62

     hubbard stress (kbar)      0.00      0.00      0.00
                                0.00      0.00      0.00
                                0.00      0.00      0.00

     DFT-D   stress (kbar)      0.00      0.00      0.00
                                0.00      0.00      0.00
                                0.00      0.00      0.00

     XDM     stress (kbar)      0.00      0.00      0.00
                                0.00      0.00      0.00
                                0.00      0.00      0.00

     dft-nl  stress (kbar)      0.00      0.00      0.00
                                0.00      0.00      0.00
                                0.00      0.00      0.00

     TS-vdW  stress (kbar)      0.00      0.00      0.00
                                0.00      0.00      0.00
                                0.00      0.00      0.00

     MDB     stress (kbar)      0.00      0.00      0.00
                                0.00      0.00      0.00
                                0.00      0.00      0.00

     3D-RISM stress (kbar)      0.00      0.00      0.00
                                0.00      0.00      0.00
                                0.00      0.00      0.00


     Writing all to output data dir ../tmp/Si/Si.save/ :
     XML data file, charge density, pseudopotentials, collected wavefunctions

     init_run     :      2.58s CPU      2.65s WALL (       1 calls)
     electrons    :     15.46s CPU     15.82s WALL (       1 calls)
     forces       :      0.17s CPU      0.17s WALL (       1 calls)
     stress       :      1.93s CPU      1.96s WALL (       1 calls)

     Called by init_run:
     wfcinit      :      2.25s CPU      2.31s WALL (       1 calls)
     wfcinit:atom :      0.06s CPU      0.06s WALL (     512 calls)
     wfcinit:wfcr :      1.88s CPU      1.93s WALL (     512 calls)
     potinit      :      0.01s CPU      0.01s WALL (       1 calls)
     hinit0       :      0.26s CPU      0.27s WALL (       1 calls)

     Called by electrons:
     c_bands      :     13.45s CPU     13.72s WALL (       2 calls)
     sum_band     :      2.01s CPU      2.09s WALL (       2 calls)
     v_of_rho     :      0.00s CPU      0.00s WALL (       2 calls)
     v_h          :      0.00s CPU      0.00s WALL (       2 calls)
     v_xc         :      0.00s CPU      0.00s WALL (       2 calls)
     mix_rho      :      0.00s CPU      0.00s WALL (       2 calls)

     Called by c_bands:
     init_us_2    :      0.53s CPU      0.55s WALL (    3584 calls)
     cegterg      :     13.15s CPU     13.41s WALL (    1024 calls)

     Called by sum_band:
     sum_band:wei :      0.00s CPU      0.00s WALL (       2 calls)
     sum_band:loo :      2.00s CPU      2.08s WALL (       2 calls)
     sum_band:buf :      0.02s CPU      0.02s WALL (    1024 calls)
     sum_band:ini :      0.17s CPU      0.18s WALL (    1024 calls)

     Called by *egterg:
     cdiaghg      :      0.60s CPU      0.62s WALL (    4414 calls)
     cegterg:over :      0.28s CPU      0.29s WALL (    3902 calls)
     cegterg:upda :      0.22s CPU      0.22s WALL (    3902 calls)
     cegterg:last :      0.25s CPU      0.26s WALL (    3034 calls)
     h_psi        :     13.36s CPU     13.64s WALL (    5438 calls)
     g_psi        :      0.09s CPU      0.09s WALL (    3902 calls)

     Called by h_psi:
     h_psi:calbec :      0.23s CPU      0.23s WALL (    5438 calls)
     vloc_psi     :     12.85s CPU     13.11s WALL (    5438 calls)
     add_vuspsi   :      0.17s CPU      0.17s WALL (    5438 calls)

     General routines
     calbec       :      0.30s CPU      0.30s WALL (    7998 calls)
     fft          :      0.24s CPU      0.24s WALL (      11 calls)
     ffts         :      0.00s CPU      0.00s WALL (       2 calls)
     fftw         :     12.66s CPU     12.96s WALL (   71522 calls)


     PWSCF        :     20.21s CPU     20.78s WALL


   This run was terminated on:  15:23: 9   7May2024            

=------------------------------------------------------------------------------=
   JOB DONE.
=------------------------------------------------------------------------------=
