
     Program PWSCF v.7.3.1 starts on  7May2024 at 15:23:57 

     This program is part of the open-source Quantum ESPRESSO suite
     for quantum simulation of materials; please cite
         "P. Giannozzi et al., J. Phys.:Condens. Matter 21 395502 (2009);
         "P. Giannozzi et al., J. Phys.:Condens. Matter 29 465901 (2017);
         "P. Giannozzi et al., J. Chem. Phys. 152 154105 (2020);
          URL http://www.quantum-espresso.org", 
     in publications or presentations arising from this work. More details at
     http://www.quantum-espresso.org/quote

     Serial version
     5781 MiB available memory on the printing compute node when the environment starts

     Reading input from Si7.pw.in

     Current dimensions of program PWSCF are:
     Max number of different atomic species (ntypx) = 10
     Max number of k-points (npk) =  40000
     Max angular momentum in pseudopotentials (lmaxx) =  4


     G-vector sticks info
     --------------------
     sticks:   dense  smooth     PW     G-vecs:    dense   smooth      PW
     Sum         283     283    109                 6629     6629    1449

     Using Slab Decomposition



     bravais-lattice index     =            0
     lattice parameter (alat)  =       5.0781  a.u.
     unit-cell volume          =     193.8226 (a.u.)^3
     number of atoms/cell      =            2
     number of atomic types    =            1
     number of electrons       =         8.00
     number of Kohn-Sham states=            8
     kinetic-energy cutoff     =      40.0000  Ry
     charge density cutoff     =     160.0000  Ry
     scf convergence threshold =      2.0E-02
     mixing beta               =       0.1000
     number of iterations used =            8  plain     mixing
     Exchange-correlation=  SLA  PZ   NOGX NOGC
                           (   1   1   0   0   0   0   0)

     celldm(1)=   5.078053  celldm(2)=   0.000000  celldm(3)=   0.000000
     celldm(4)=   0.000000  celldm(5)=   0.000000  celldm(6)=   0.000000

     crystal axes: (cart. coord. in units of alat)
               a(1) = (   1.000000   0.000000   0.000000 )  
               a(2) = (  -0.500000   0.866025   0.000000 )  
               a(3) = (   0.000000   0.000000   1.709157 )  

     reciprocal axes: (cart. coord. in units 2 pi/alat)
               b(1) = (  1.000000  0.577350 -0.000000 )  
               b(2) = (  0.000000  1.154701  0.000000 )  
               b(3) = (  0.000000 -0.000000  0.585084 )  


     PseudoPot. # 1 for Si read from file:
     ../pseudo/Si.pz-vbc.UPF
     MD5 check sum: 6dfa03ddd5817404712e03e4d12deb78
     Pseudo is Norm-conserving, Zval =  4.0
     Generated by new atomic code, or converted to UPF format
     Using radial grid of  431 points,  2 beta functions with: 
                l(1) =   0
                l(2) =   1

     atomic species   valence    mass     pseudopotential
     Si                4.00    28.08600     Si( 1.00)

     No symmetry found


                                    s                        frac. trans.

      isym =  1     identity                                     

 cryst.   s( 1) = (     1          0          0      )
                  (     0          1          0      )
                  (     0          0          1      )

 cart.    s( 1) = (  1.0000000  0.0000000  0.0000000 )
                  (  0.0000000  1.0000000  0.0000000 )
                  (  0.0000000  0.0000000  1.0000000 )


   Cartesian axes

     site n.     atom                  positions (alat units)
         1        Si     tau(   1) = (   0.1221696   0.4970300   0.2744152  )
         2        Si     tau(   2) = (   0.4764941   0.2183318   1.3088288  )

   Crystallographic axes

     site n.     atom                  positions (cryst. coord.)
         1        Si     tau(   1) = (  0.4091301  0.5739208  0.1605558  )
         2        Si     tau(   2) = (  0.6025480  0.2521078  0.7657742  )

     number of k points=   512  Fermi-Dirac smearing, width (Ry)=  0.0019
                       cart. coord. in units 2pi/alat
        k(    1) = (   0.0000000   0.0000000   0.0000000), wk =   0.0039062
        k(    2) = (   0.0000000   0.0000000   0.0731354), wk =   0.0039062
        k(    3) = (   0.0000000   0.0000000   0.1462709), wk =   0.0039062
        k(    4) = (   0.0000000   0.0000000   0.2194063), wk =   0.0039062
        k(    5) = (   0.0000000   0.0000000  -0.2925418), wk =   0.0039062
        k(    6) = (   0.0000000   0.0000000  -0.2194063), wk =   0.0039062
        k(    7) = (   0.0000000   0.0000000  -0.1462709), wk =   0.0039062
        k(    8) = (   0.0000000   0.0000000  -0.0731354), wk =   0.0039062
        k(    9) = (   0.0000000   0.1443376   0.0000000), wk =   0.0039062
        k(   10) = (   0.0000000   0.1443376   0.0731354), wk =   0.0039062
        k(   11) = (   0.0000000   0.1443376   0.1462709), wk =   0.0039062
        k(   12) = (   0.0000000   0.1443376   0.2194063), wk =   0.0039062
        k(   13) = (   0.0000000   0.1443376  -0.2925418), wk =   0.0039062
        k(   14) = (   0.0000000   0.1443376  -0.2194063), wk =   0.0039062
        k(   15) = (   0.0000000   0.1443376  -0.1462709), wk =   0.0039062
        k(   16) = (   0.0000000   0.1443376  -0.0731354), wk =   0.0039062
        k(   17) = (   0.0000000   0.2886751   0.0000000), wk =   0.0039062
        k(   18) = (   0.0000000   0.2886751   0.0731354), wk =   0.0039062
        k(   19) = (   0.0000000   0.2886751   0.1462709), wk =   0.0039062
        k(   20) = (   0.0000000   0.2886751   0.2194063), wk =   0.0039062
        k(   21) = (   0.0000000   0.2886751  -0.2925418), wk =   0.0039062
        k(   22) = (   0.0000000   0.2886751  -0.2194063), wk =   0.0039062
        k(   23) = (   0.0000000   0.2886751  -0.1462709), wk =   0.0039062
        k(   24) = (   0.0000000   0.2886751  -0.0731354), wk =   0.0039062
        k(   25) = (   0.0000000   0.4330127   0.0000000), wk =   0.0039062
        k(   26) = (   0.0000000   0.4330127   0.0731354), wk =   0.0039062
        k(   27) = (   0.0000000   0.4330127   0.1462709), wk =   0.0039062
        k(   28) = (   0.0000000   0.4330127   0.2194063), wk =   0.0039062
        k(   29) = (   0.0000000   0.4330127  -0.2925418), wk =   0.0039062
        k(   30) = (   0.0000000   0.4330127  -0.2194063), wk =   0.0039062
        k(   31) = (   0.0000000   0.4330127  -0.1462709), wk =   0.0039062
        k(   32) = (   0.0000000   0.4330127  -0.0731354), wk =   0.0039062
        k(   33) = (   0.0000000  -0.5773503   0.0000000), wk =   0.0039062
        k(   34) = (   0.0000000  -0.5773503   0.0731354), wk =   0.0039062
        k(   35) = (   0.0000000  -0.5773503   0.1462709), wk =   0.0039062
        k(   36) = (   0.0000000  -0.5773503   0.2194063), wk =   0.0039062
        k(   37) = (   0.0000000  -0.5773503  -0.2925418), wk =   0.0039062
        k(   38) = (   0.0000000  -0.5773503  -0.2194063), wk =   0.0039062
        k(   39) = (   0.0000000  -0.5773503  -0.1462709), wk =   0.0039062
        k(   40) = (   0.0000000  -0.5773503  -0.0731354), wk =   0.0039062
        k(   41) = (   0.0000000  -0.4330127   0.0000000), wk =   0.0039062
        k(   42) = (   0.0000000  -0.4330127   0.0731354), wk =   0.0039062
        k(   43) = (   0.0000000  -0.4330127   0.1462709), wk =   0.0039062
        k(   44) = (   0.0000000  -0.4330127   0.2194063), wk =   0.0039062
        k(   45) = (   0.0000000  -0.4330127  -0.2925418), wk =   0.0039062
        k(   46) = (   0.0000000  -0.4330127  -0.2194063), wk =   0.0039062
        k(   47) = (   0.0000000  -0.4330127  -0.1462709), wk =   0.0039062
        k(   48) = (   0.0000000  -0.4330127  -0.0731354), wk =   0.0039062
        k(   49) = (   0.0000000  -0.2886751   0.0000000), wk =   0.0039062
        k(   50) = (   0.0000000  -0.2886751   0.0731354), wk =   0.0039062
        k(   51) = (   0.0000000  -0.2886751   0.1462709), wk =   0.0039062
        k(   52) = (   0.0000000  -0.2886751   0.2194063), wk =   0.0039062
        k(   53) = (   0.0000000  -0.2886751  -0.2925418), wk =   0.0039062
        k(   54) = (   0.0000000  -0.2886751  -0.2194063), wk =   0.0039062
        k(   55) = (   0.0000000  -0.2886751  -0.1462709), wk =   0.0039062
        k(   56) = (   0.0000000  -0.2886751  -0.0731354), wk =   0.0039062
        k(   57) = (   0.0000000  -0.1443376   0.0000000), wk =   0.0039062
        k(   58) = (   0.0000000  -0.1443376   0.0731354), wk =   0.0039062
        k(   59) = (   0.0000000  -0.1443376   0.1462709), wk =   0.0039062
        k(   60) = (   0.0000000  -0.1443376   0.2194063), wk =   0.0039062
        k(   61) = (   0.0000000  -0.1443376  -0.2925418), wk =   0.0039062
        k(   62) = (   0.0000000  -0.1443376  -0.2194063), wk =   0.0039062
        k(   63) = (   0.0000000  -0.1443376  -0.1462709), wk =   0.0039062
        k(   64) = (   0.0000000  -0.1443376  -0.0731354), wk =   0.0039062
        k(   65) = (   0.1250000   0.0721688   0.0000000), wk =   0.0039062
        k(   66) = (   0.1250000   0.0721688   0.0731354), wk =   0.0039062
        k(   67) = (   0.1250000   0.0721688   0.1462709), wk =   0.0039062
        k(   68) = (   0.1250000   0.0721688   0.2194063), wk =   0.0039062
        k(   69) = (   0.1250000   0.0721688  -0.2925418), wk =   0.0039062
        k(   70) = (   0.1250000   0.0721688  -0.2194063), wk =   0.0039062
        k(   71) = (   0.1250000   0.0721688  -0.1462709), wk =   0.0039062
        k(   72) = (   0.1250000   0.0721688  -0.0731354), wk =   0.0039062
        k(   73) = (   0.1250000   0.2165064   0.0000000), wk =   0.0039062
        k(   74) = (   0.1250000   0.2165064   0.0731354), wk =   0.0039062
        k(   75) = (   0.1250000   0.2165064   0.1462709), wk =   0.0039062
        k(   76) = (   0.1250000   0.2165064   0.2194063), wk =   0.0039062
        k(   77) = (   0.1250000   0.2165064  -0.2925418), wk =   0.0039062
        k(   78) = (   0.1250000   0.2165064  -0.2194063), wk =   0.0039062
        k(   79) = (   0.1250000   0.2165064  -0.1462709), wk =   0.0039062
        k(   80) = (   0.1250000   0.2165064  -0.0731354), wk =   0.0039062
        k(   81) = (   0.1250000   0.3608439   0.0000000), wk =   0.0039062
        k(   82) = (   0.1250000   0.3608439   0.0731354), wk =   0.0039062
        k(   83) = (   0.1250000   0.3608439   0.1462709), wk =   0.0039062
        k(   84) = (   0.1250000   0.3608439   0.2194063), wk =   0.0039062
        k(   85) = (   0.1250000   0.3608439  -0.2925418), wk =   0.0039062
        k(   86) = (   0.1250000   0.3608439  -0.2194063), wk =   0.0039062
        k(   87) = (   0.1250000   0.3608439  -0.1462709), wk =   0.0039062
        k(   88) = (   0.1250000   0.3608439  -0.0731354), wk =   0.0039062
        k(   89) = (   0.1250000   0.5051815   0.0000000), wk =   0.0039062
        k(   90) = (   0.1250000   0.5051815   0.0731354), wk =   0.0039062
        k(   91) = (   0.1250000   0.5051815   0.1462709), wk =   0.0039062
        k(   92) = (   0.1250000   0.5051815   0.2194063), wk =   0.0039062
        k(   93) = (   0.1250000   0.5051815  -0.2925418), wk =   0.0039062
        k(   94) = (   0.1250000   0.5051815  -0.2194063), wk =   0.0039062
        k(   95) = (   0.1250000   0.5051815  -0.1462709), wk =   0.0039062
        k(   96) = (   0.1250000   0.5051815  -0.0731354), wk =   0.0039062
        k(   97) = (   0.1250000  -0.5051815   0.0000000), wk =   0.0039062
        k(   98) = (   0.1250000  -0.5051815   0.0731354), wk =   0.0039062
        k(   99) = (   0.1250000  -0.5051815   0.1462709), wk =   0.0039062
        k(  100) = (   0.1250000  -0.5051815   0.2194063), wk =   0.0039062
        k(  101) = (   0.1250000  -0.5051815  -0.2925418), wk =   0.0039062
        k(  102) = (   0.1250000  -0.5051815  -0.2194063), wk =   0.0039062
        k(  103) = (   0.1250000  -0.5051815  -0.1462709), wk =   0.0039062
        k(  104) = (   0.1250000  -0.5051815  -0.0731354), wk =   0.0039062
        k(  105) = (   0.1250000  -0.3608439   0.0000000), wk =   0.0039062
        k(  106) = (   0.1250000  -0.3608439   0.0731354), wk =   0.0039062
        k(  107) = (   0.1250000  -0.3608439   0.1462709), wk =   0.0039062
        k(  108) = (   0.1250000  -0.3608439   0.2194063), wk =   0.0039062
        k(  109) = (   0.1250000  -0.3608439  -0.2925418), wk =   0.0039062
        k(  110) = (   0.1250000  -0.3608439  -0.2194063), wk =   0.0039062
        k(  111) = (   0.1250000  -0.3608439  -0.1462709), wk =   0.0039062
        k(  112) = (   0.1250000  -0.3608439  -0.0731354), wk =   0.0039062
        k(  113) = (   0.1250000  -0.2165064   0.0000000), wk =   0.0039062
        k(  114) = (   0.1250000  -0.2165064   0.0731354), wk =   0.0039062
        k(  115) = (   0.1250000  -0.2165064   0.1462709), wk =   0.0039062
        k(  116) = (   0.1250000  -0.2165064   0.2194063), wk =   0.0039062
        k(  117) = (   0.1250000  -0.2165064  -0.2925418), wk =   0.0039062
        k(  118) = (   0.1250000  -0.2165064  -0.2194063), wk =   0.0039062
        k(  119) = (   0.1250000  -0.2165064  -0.1462709), wk =   0.0039062
        k(  120) = (   0.1250000  -0.2165064  -0.0731354), wk =   0.0039062
        k(  121) = (   0.1250000  -0.0721688   0.0000000), wk =   0.0039062
        k(  122) = (   0.1250000  -0.0721688   0.0731354), wk =   0.0039062
        k(  123) = (   0.1250000  -0.0721688   0.1462709), wk =   0.0039062
        k(  124) = (   0.1250000  -0.0721688   0.2194063), wk =   0.0039062
        k(  125) = (   0.1250000  -0.0721688  -0.2925418), wk =   0.0039062
        k(  126) = (   0.1250000  -0.0721688  -0.2194063), wk =   0.0039062
        k(  127) = (   0.1250000  -0.0721688  -0.1462709), wk =   0.0039062
        k(  128) = (   0.1250000  -0.0721688  -0.0731354), wk =   0.0039062
        k(  129) = (   0.2500000   0.1443376   0.0000000), wk =   0.0039062
        k(  130) = (   0.2500000   0.1443376   0.0731354), wk =   0.0039062
        k(  131) = (   0.2500000   0.1443376   0.1462709), wk =   0.0039062
        k(  132) = (   0.2500000   0.1443376   0.2194063), wk =   0.0039062
        k(  133) = (   0.2500000   0.1443376  -0.2925418), wk =   0.0039062
        k(  134) = (   0.2500000   0.1443376  -0.2194063), wk =   0.0039062
        k(  135) = (   0.2500000   0.1443376  -0.1462709), wk =   0.0039062
        k(  136) = (   0.2500000   0.1443376  -0.0731354), wk =   0.0039062
        k(  137) = (   0.2500000   0.2886751   0.0000000), wk =   0.0039062
        k(  138) = (   0.2500000   0.2886751   0.0731354), wk =   0.0039062
        k(  139) = (   0.2500000   0.2886751   0.1462709), wk =   0.0039062
        k(  140) = (   0.2500000   0.2886751   0.2194063), wk =   0.0039062
        k(  141) = (   0.2500000   0.2886751  -0.2925418), wk =   0.0039062
        k(  142) = (   0.2500000   0.2886751  -0.2194063), wk =   0.0039062
        k(  143) = (   0.2500000   0.2886751  -0.1462709), wk =   0.0039062
        k(  144) = (   0.2500000   0.2886751  -0.0731354), wk =   0.0039062
        k(  145) = (   0.2500000   0.4330127   0.0000000), wk =   0.0039062
        k(  146) = (   0.2500000   0.4330127   0.0731354), wk =   0.0039062
        k(  147) = (   0.2500000   0.4330127   0.1462709), wk =   0.0039062
        k(  148) = (   0.2500000   0.4330127   0.2194063), wk =   0.0039062
        k(  149) = (   0.2500000   0.4330127  -0.2925418), wk =   0.0039062
        k(  150) = (   0.2500000   0.4330127  -0.2194063), wk =   0.0039062
        k(  151) = (   0.2500000   0.4330127  -0.1462709), wk =   0.0039062
        k(  152) = (   0.2500000   0.4330127  -0.0731354), wk =   0.0039062
        k(  153) = (   0.2500000   0.5773503   0.0000000), wk =   0.0039062
        k(  154) = (   0.2500000   0.5773503   0.0731354), wk =   0.0039062
        k(  155) = (   0.2500000   0.5773503   0.1462709), wk =   0.0039062
        k(  156) = (   0.2500000   0.5773503   0.2194063), wk =   0.0039062
        k(  157) = (   0.2500000   0.5773503  -0.2925418), wk =   0.0039062
        k(  158) = (   0.2500000   0.5773503  -0.2194063), wk =   0.0039062
        k(  159) = (   0.2500000   0.5773503  -0.1462709), wk =   0.0039062
        k(  160) = (   0.2500000   0.5773503  -0.0731354), wk =   0.0039062
        k(  161) = (   0.2500000  -0.4330127   0.0000000), wk =   0.0039062
        k(  162) = (   0.2500000  -0.4330127   0.0731354), wk =   0.0039062
        k(  163) = (   0.2500000  -0.4330127   0.1462709), wk =   0.0039062
        k(  164) = (   0.2500000  -0.4330127   0.2194063), wk =   0.0039062
        k(  165) = (   0.2500000  -0.4330127  -0.2925418), wk =   0.0039062
        k(  166) = (   0.2500000  -0.4330127  -0.2194063), wk =   0.0039062
        k(  167) = (   0.2500000  -0.4330127  -0.1462709), wk =   0.0039062
        k(  168) = (   0.2500000  -0.4330127  -0.0731354), wk =   0.0039062
        k(  169) = (   0.2500000  -0.2886751   0.0000000), wk =   0.0039062
        k(  170) = (   0.2500000  -0.2886751   0.0731354), wk =   0.0039062
        k(  171) = (   0.2500000  -0.2886751   0.1462709), wk =   0.0039062
        k(  172) = (   0.2500000  -0.2886751   0.2194063), wk =   0.0039062
        k(  173) = (   0.2500000  -0.2886751  -0.2925418), wk =   0.0039062
        k(  174) = (   0.2500000  -0.2886751  -0.2194063), wk =   0.0039062
        k(  175) = (   0.2500000  -0.2886751  -0.1462709), wk =   0.0039062
        k(  176) = (   0.2500000  -0.2886751  -0.0731354), wk =   0.0039062
        k(  177) = (   0.2500000  -0.1443376   0.0000000), wk =   0.0039062
        k(  178) = (   0.2500000  -0.1443376   0.0731354), wk =   0.0039062
        k(  179) = (   0.2500000  -0.1443376   0.1462709), wk =   0.0039062
        k(  180) = (   0.2500000  -0.1443376   0.2194063), wk =   0.0039062
        k(  181) = (   0.2500000  -0.1443376  -0.2925418), wk =   0.0039062
        k(  182) = (   0.2500000  -0.1443376  -0.2194063), wk =   0.0039062
        k(  183) = (   0.2500000  -0.1443376  -0.1462709), wk =   0.0039062
        k(  184) = (   0.2500000  -0.1443376  -0.0731354), wk =   0.0039062
        k(  185) = (   0.2500000   0.0000000   0.0000000), wk =   0.0039062
        k(  186) = (   0.2500000   0.0000000   0.0731354), wk =   0.0039062
        k(  187) = (   0.2500000   0.0000000   0.1462709), wk =   0.0039062
        k(  188) = (   0.2500000   0.0000000   0.2194063), wk =   0.0039062
        k(  189) = (   0.2500000   0.0000000  -0.2925418), wk =   0.0039062
        k(  190) = (   0.2500000   0.0000000  -0.2194063), wk =   0.0039062
        k(  191) = (   0.2500000   0.0000000  -0.1462709), wk =   0.0039062
        k(  192) = (   0.2500000   0.0000000  -0.0731354), wk =   0.0039062
        k(  193) = (   0.3750000   0.2165064   0.0000000), wk =   0.0039062
        k(  194) = (   0.3750000   0.2165064   0.0731354), wk =   0.0039062
        k(  195) = (   0.3750000   0.2165064   0.1462709), wk =   0.0039062
        k(  196) = (   0.3750000   0.2165064   0.2194063), wk =   0.0039062
        k(  197) = (   0.3750000   0.2165064  -0.2925418), wk =   0.0039062
        k(  198) = (   0.3750000   0.2165064  -0.2194063), wk =   0.0039062
        k(  199) = (   0.3750000   0.2165064  -0.1462709), wk =   0.0039062
        k(  200) = (   0.3750000   0.2165064  -0.0731354), wk =   0.0039062
        k(  201) = (   0.3750000   0.3608439   0.0000000), wk =   0.0039062
        k(  202) = (   0.3750000   0.3608439   0.0731354), wk =   0.0039062
        k(  203) = (   0.3750000   0.3608439   0.1462709), wk =   0.0039062
        k(  204) = (   0.3750000   0.3608439   0.2194063), wk =   0.0039062
        k(  205) = (   0.3750000   0.3608439  -0.2925418), wk =   0.0039062
        k(  206) = (   0.3750000   0.3608439  -0.2194063), wk =   0.0039062
        k(  207) = (   0.3750000   0.3608439  -0.1462709), wk =   0.0039062
        k(  208) = (   0.3750000   0.3608439  -0.0731354), wk =   0.0039062
        k(  209) = (   0.3750000   0.5051815   0.0000000), wk =   0.0039062
        k(  210) = (   0.3750000   0.5051815   0.0731354), wk =   0.0039062
        k(  211) = (   0.3750000   0.5051815   0.1462709), wk =   0.0039062
        k(  212) = (   0.3750000   0.5051815   0.2194063), wk =   0.0039062
        k(  213) = (   0.3750000   0.5051815  -0.2925418), wk =   0.0039062
        k(  214) = (   0.3750000   0.5051815  -0.2194063), wk =   0.0039062
        k(  215) = (   0.3750000   0.5051815  -0.1462709), wk =   0.0039062
        k(  216) = (   0.3750000   0.5051815  -0.0731354), wk =   0.0039062
        k(  217) = (   0.3750000   0.6495191   0.0000000), wk =   0.0039062
        k(  218) = (   0.3750000   0.6495191   0.0731354), wk =   0.0039062
        k(  219) = (   0.3750000   0.6495191   0.1462709), wk =   0.0039062
        k(  220) = (   0.3750000   0.6495191   0.2194063), wk =   0.0039062
        k(  221) = (   0.3750000   0.6495191  -0.2925418), wk =   0.0039062
        k(  222) = (   0.3750000   0.6495191  -0.2194063), wk =   0.0039062
        k(  223) = (   0.3750000   0.6495191  -0.1462709), wk =   0.0039062
        k(  224) = (   0.3750000   0.6495191  -0.0731354), wk =   0.0039062
        k(  225) = (   0.3750000  -0.3608439   0.0000000), wk =   0.0039062
        k(  226) = (   0.3750000  -0.3608439   0.0731354), wk =   0.0039062
        k(  227) = (   0.3750000  -0.3608439   0.1462709), wk =   0.0039062
        k(  228) = (   0.3750000  -0.3608439   0.2194063), wk =   0.0039062
        k(  229) = (   0.3750000  -0.3608439  -0.2925418), wk =   0.0039062
        k(  230) = (   0.3750000  -0.3608439  -0.2194063), wk =   0.0039062
        k(  231) = (   0.3750000  -0.3608439  -0.1462709), wk =   0.0039062
        k(  232) = (   0.3750000  -0.3608439  -0.0731354), wk =   0.0039062
        k(  233) = (   0.3750000  -0.2165064   0.0000000), wk =   0.0039062
        k(  234) = (   0.3750000  -0.2165064   0.0731354), wk =   0.0039062
        k(  235) = (   0.3750000  -0.2165064   0.1462709), wk =   0.0039062
        k(  236) = (   0.3750000  -0.2165064   0.2194063), wk =   0.0039062
        k(  237) = (   0.3750000  -0.2165064  -0.2925418), wk =   0.0039062
        k(  238) = (   0.3750000  -0.2165064  -0.2194063), wk =   0.0039062
        k(  239) = (   0.3750000  -0.2165064  -0.1462709), wk =   0.0039062
        k(  240) = (   0.3750000  -0.2165064  -0.0731354), wk =   0.0039062
        k(  241) = (   0.3750000  -0.0721688   0.0000000), wk =   0.0039062
        k(  242) = (   0.3750000  -0.0721688   0.0731354), wk =   0.0039062
        k(  243) = (   0.3750000  -0.0721688   0.1462709), wk =   0.0039062
        k(  244) = (   0.3750000  -0.0721688   0.2194063), wk =   0.0039062
        k(  245) = (   0.3750000  -0.0721688  -0.2925418), wk =   0.0039062
        k(  246) = (   0.3750000  -0.0721688  -0.2194063), wk =   0.0039062
        k(  247) = (   0.3750000  -0.0721688  -0.1462709), wk =   0.0039062
        k(  248) = (   0.3750000  -0.0721688  -0.0731354), wk =   0.0039062
        k(  249) = (   0.3750000   0.0721688   0.0000000), wk =   0.0039062
        k(  250) = (   0.3750000   0.0721688   0.0731354), wk =   0.0039062
        k(  251) = (   0.3750000   0.0721688   0.1462709), wk =   0.0039062
        k(  252) = (   0.3750000   0.0721688   0.2194063), wk =   0.0039062
        k(  253) = (   0.3750000   0.0721688  -0.2925418), wk =   0.0039062
        k(  254) = (   0.3750000   0.0721688  -0.2194063), wk =   0.0039062
        k(  255) = (   0.3750000   0.0721688  -0.1462709), wk =   0.0039062
        k(  256) = (   0.3750000   0.0721688  -0.0731354), wk =   0.0039062
        k(  257) = (  -0.5000000  -0.2886751   0.0000000), wk =   0.0039062
        k(  258) = (  -0.5000000  -0.2886751   0.0731354), wk =   0.0039062
        k(  259) = (  -0.5000000  -0.2886751   0.1462709), wk =   0.0039062
        k(  260) = (  -0.5000000  -0.2886751   0.2194063), wk =   0.0039062
        k(  261) = (  -0.5000000  -0.2886751  -0.2925418), wk =   0.0039062
        k(  262) = (  -0.5000000  -0.2886751  -0.2194063), wk =   0.0039062
        k(  263) = (  -0.5000000  -0.2886751  -0.1462709), wk =   0.0039062
        k(  264) = (  -0.5000000  -0.2886751  -0.0731354), wk =   0.0039062
        k(  265) = (  -0.5000000  -0.1443376   0.0000000), wk =   0.0039062
        k(  266) = (  -0.5000000  -0.1443376   0.0731354), wk =   0.0039062
        k(  267) = (  -0.5000000  -0.1443376   0.1462709), wk =   0.0039062
        k(  268) = (  -0.5000000  -0.1443376   0.2194063), wk =   0.0039062
        k(  269) = (  -0.5000000  -0.1443376  -0.2925418), wk =   0.0039062
        k(  270) = (  -0.5000000  -0.1443376  -0.2194063), wk =   0.0039062
        k(  271) = (  -0.5000000  -0.1443376  -0.1462709), wk =   0.0039062
        k(  272) = (  -0.5000000  -0.1443376  -0.0731354), wk =   0.0039062
        k(  273) = (  -0.5000000  -0.0000000   0.0000000), wk =   0.0039062
        k(  274) = (  -0.5000000  -0.0000000   0.0731354), wk =   0.0039062
        k(  275) = (  -0.5000000  -0.0000000   0.1462709), wk =   0.0039062
        k(  276) = (  -0.5000000  -0.0000000   0.2194063), wk =   0.0039062
        k(  277) = (  -0.5000000  -0.0000000  -0.2925418), wk =   0.0039062
        k(  278) = (  -0.5000000  -0.0000000  -0.2194063), wk =   0.0039062
        k(  279) = (  -0.5000000  -0.0000000  -0.1462709), wk =   0.0039062
        k(  280) = (  -0.5000000  -0.0000000  -0.0731354), wk =   0.0039062
        k(  281) = (  -0.5000000   0.1443376   0.0000000), wk =   0.0039062
        k(  282) = (  -0.5000000   0.1443376   0.0731354), wk =   0.0039062
        k(  283) = (  -0.5000000   0.1443376   0.1462709), wk =   0.0039062
        k(  284) = (  -0.5000000   0.1443376   0.2194063), wk =   0.0039062
        k(  285) = (  -0.5000000   0.1443376  -0.2925418), wk =   0.0039062
        k(  286) = (  -0.5000000   0.1443376  -0.2194063), wk =   0.0039062
        k(  287) = (  -0.5000000   0.1443376  -0.1462709), wk =   0.0039062
        k(  288) = (  -0.5000000   0.1443376  -0.0731354), wk =   0.0039062
        k(  289) = (  -0.5000000  -0.8660254   0.0000000), wk =   0.0039062
        k(  290) = (  -0.5000000  -0.8660254   0.0731354), wk =   0.0039062
        k(  291) = (  -0.5000000  -0.8660254   0.1462709), wk =   0.0039062
        k(  292) = (  -0.5000000  -0.8660254   0.2194063), wk =   0.0039062
        k(  293) = (  -0.5000000  -0.8660254  -0.2925418), wk =   0.0039062
        k(  294) = (  -0.5000000  -0.8660254  -0.2194063), wk =   0.0039062
        k(  295) = (  -0.5000000  -0.8660254  -0.1462709), wk =   0.0039062
        k(  296) = (  -0.5000000  -0.8660254  -0.0731354), wk =   0.0039062
        k(  297) = (  -0.5000000  -0.7216878   0.0000000), wk =   0.0039062
        k(  298) = (  -0.5000000  -0.7216878   0.0731354), wk =   0.0039062
        k(  299) = (  -0.5000000  -0.7216878   0.1462709), wk =   0.0039062
        k(  300) = (  -0.5000000  -0.7216878   0.2194063), wk =   0.0039062
        k(  301) = (  -0.5000000  -0.7216878  -0.2925418), wk =   0.0039062
        k(  302) = (  -0.5000000  -0.7216878  -0.2194063), wk =   0.0039062
        k(  303) = (  -0.5000000  -0.7216878  -0.1462709), wk =   0.0039062
        k(  304) = (  -0.5000000  -0.7216878  -0.0731354), wk =   0.0039062
        k(  305) = (  -0.5000000  -0.5773503   0.0000000), wk =   0.0039062
        k(  306) = (  -0.5000000  -0.5773503   0.0731354), wk =   0.0039062
        k(  307) = (  -0.5000000  -0.5773503   0.1462709), wk =   0.0039062
        k(  308) = (  -0.5000000  -0.5773503   0.2194063), wk =   0.0039062
        k(  309) = (  -0.5000000  -0.5773503  -0.2925418), wk =   0.0039062
        k(  310) = (  -0.5000000  -0.5773503  -0.2194063), wk =   0.0039062
        k(  311) = (  -0.5000000  -0.5773503  -0.1462709), wk =   0.0039062
        k(  312) = (  -0.5000000  -0.5773503  -0.0731354), wk =   0.0039062
        k(  313) = (  -0.5000000  -0.4330127   0.0000000), wk =   0.0039062
        k(  314) = (  -0.5000000  -0.4330127   0.0731354), wk =   0.0039062
        k(  315) = (  -0.5000000  -0.4330127   0.1462709), wk =   0.0039062
        k(  316) = (  -0.5000000  -0.4330127   0.2194063), wk =   0.0039062
        k(  317) = (  -0.5000000  -0.4330127  -0.2925418), wk =   0.0039062
        k(  318) = (  -0.5000000  -0.4330127  -0.2194063), wk =   0.0039062
        k(  319) = (  -0.5000000  -0.4330127  -0.1462709), wk =   0.0039062
        k(  320) = (  -0.5000000  -0.4330127  -0.0731354), wk =   0.0039062
        k(  321) = (  -0.3750000  -0.2165064   0.0000000), wk =   0.0039062
        k(  322) = (  -0.3750000  -0.2165064   0.0731354), wk =   0.0039062
        k(  323) = (  -0.3750000  -0.2165064   0.1462709), wk =   0.0039062
        k(  324) = (  -0.3750000  -0.2165064   0.2194063), wk =   0.0039062
        k(  325) = (  -0.3750000  -0.2165064  -0.2925418), wk =   0.0039062
        k(  326) = (  -0.3750000  -0.2165064  -0.2194063), wk =   0.0039062
        k(  327) = (  -0.3750000  -0.2165064  -0.1462709), wk =   0.0039062
        k(  328) = (  -0.3750000  -0.2165064  -0.0731354), wk =   0.0039062
        k(  329) = (  -0.3750000  -0.0721688   0.0000000), wk =   0.0039062
        k(  330) = (  -0.3750000  -0.0721688   0.0731354), wk =   0.0039062
        k(  331) = (  -0.3750000  -0.0721688   0.1462709), wk =   0.0039062
        k(  332) = (  -0.3750000  -0.0721688   0.2194063), wk =   0.0039062
        k(  333) = (  -0.3750000  -0.0721688  -0.2925418), wk =   0.0039062
        k(  334) = (  -0.3750000  -0.0721688  -0.2194063), wk =   0.0039062
        k(  335) = (  -0.3750000  -0.0721688  -0.1462709), wk =   0.0039062
        k(  336) = (  -0.3750000  -0.0721688  -0.0731354), wk =   0.0039062
        k(  337) = (  -0.3750000   0.0721688   0.0000000), wk =   0.0039062
        k(  338) = (  -0.3750000   0.0721688   0.0731354), wk =   0.0039062
        k(  339) = (  -0.3750000   0.0721688   0.1462709), wk =   0.0039062
        k(  340) = (  -0.3750000   0.0721688   0.2194063), wk =   0.0039062
        k(  341) = (  -0.3750000   0.0721688  -0.2925418), wk =   0.0039062
        k(  342) = (  -0.3750000   0.0721688  -0.2194063), wk =   0.0039062
        k(  343) = (  -0.3750000   0.0721688  -0.1462709), wk =   0.0039062
        k(  344) = (  -0.3750000   0.0721688  -0.0731354), wk =   0.0039062
        k(  345) = (  -0.3750000   0.2165064   0.0000000), wk =   0.0039062
        k(  346) = (  -0.3750000   0.2165064   0.0731354), wk =   0.0039062
        k(  347) = (  -0.3750000   0.2165064   0.1462709), wk =   0.0039062
        k(  348) = (  -0.3750000   0.2165064   0.2194063), wk =   0.0039062
        k(  349) = (  -0.3750000   0.2165064  -0.2925418), wk =   0.0039062
        k(  350) = (  -0.3750000   0.2165064  -0.2194063), wk =   0.0039062
        k(  351) = (  -0.3750000   0.2165064  -0.1462709), wk =   0.0039062
        k(  352) = (  -0.3750000   0.2165064  -0.0731354), wk =   0.0039062
        k(  353) = (  -0.3750000  -0.7938566   0.0000000), wk =   0.0039062
        k(  354) = (  -0.3750000  -0.7938566   0.0731354), wk =   0.0039062
        k(  355) = (  -0.3750000  -0.7938566   0.1462709), wk =   0.0039062
        k(  356) = (  -0.3750000  -0.7938566   0.2194063), wk =   0.0039062
        k(  357) = (  -0.3750000  -0.7938566  -0.2925418), wk =   0.0039062
        k(  358) = (  -0.3750000  -0.7938566  -0.2194063), wk =   0.0039062
        k(  359) = (  -0.3750000  -0.7938566  -0.1462709), wk =   0.0039062
        k(  360) = (  -0.3750000  -0.7938566  -0.0731354), wk =   0.0039062
        k(  361) = (  -0.3750000  -0.6495191   0.0000000), wk =   0.0039062
        k(  362) = (  -0.3750000  -0.6495191   0.0731354), wk =   0.0039062
        k(  363) = (  -0.3750000  -0.6495191   0.1462709), wk =   0.0039062
        k(  364) = (  -0.3750000  -0.6495191   0.2194063), wk =   0.0039062
        k(  365) = (  -0.3750000  -0.6495191  -0.2925418), wk =   0.0039062
        k(  366) = (  -0.3750000  -0.6495191  -0.2194063), wk =   0.0039062
        k(  367) = (  -0.3750000  -0.6495191  -0.1462709), wk =   0.0039062
        k(  368) = (  -0.3750000  -0.6495191  -0.0731354), wk =   0.0039062
        k(  369) = (  -0.3750000  -0.5051815   0.0000000), wk =   0.0039062
        k(  370) = (  -0.3750000  -0.5051815   0.0731354), wk =   0.0039062
        k(  371) = (  -0.3750000  -0.5051815   0.1462709), wk =   0.0039062
        k(  372) = (  -0.3750000  -0.5051815   0.2194063), wk =   0.0039062
        k(  373) = (  -0.3750000  -0.5051815  -0.2925418), wk =   0.0039062
        k(  374) = (  -0.3750000  -0.5051815  -0.2194063), wk =   0.0039062
        k(  375) = (  -0.3750000  -0.5051815  -0.1462709), wk =   0.0039062
        k(  376) = (  -0.3750000  -0.5051815  -0.0731354), wk =   0.0039062
        k(  377) = (  -0.3750000  -0.3608439   0.0000000), wk =   0.0039062
        k(  378) = (  -0.3750000  -0.3608439   0.0731354), wk =   0.0039062
        k(  379) = (  -0.3750000  -0.3608439   0.1462709), wk =   0.0039062
        k(  380) = (  -0.3750000  -0.3608439   0.2194063), wk =   0.0039062
        k(  381) = (  -0.3750000  -0.3608439  -0.2925418), wk =   0.0039062
        k(  382) = (  -0.3750000  -0.3608439  -0.2194063), wk =   0.0039062
        k(  383) = (  -0.3750000  -0.3608439  -0.1462709), wk =   0.0039062
        k(  384) = (  -0.3750000  -0.3608439  -0.0731354), wk =   0.0039062
        k(  385) = (  -0.2500000  -0.1443376   0.0000000), wk =   0.0039062
        k(  386) = (  -0.2500000  -0.1443376   0.0731354), wk =   0.0039062
        k(  387) = (  -0.2500000  -0.1443376   0.1462709), wk =   0.0039062
        k(  388) = (  -0.2500000  -0.1443376   0.2194063), wk =   0.0039062
        k(  389) = (  -0.2500000  -0.1443376  -0.2925418), wk =   0.0039062
        k(  390) = (  -0.2500000  -0.1443376  -0.2194063), wk =   0.0039062
        k(  391) = (  -0.2500000  -0.1443376  -0.1462709), wk =   0.0039062
        k(  392) = (  -0.2500000  -0.1443376  -0.0731354), wk =   0.0039062
        k(  393) = (  -0.2500000  -0.0000000   0.0000000), wk =   0.0039062
        k(  394) = (  -0.2500000  -0.0000000   0.0731354), wk =   0.0039062
        k(  395) = (  -0.2500000  -0.0000000   0.1462709), wk =   0.0039062
        k(  396) = (  -0.2500000  -0.0000000   0.2194063), wk =   0.0039062
        k(  397) = (  -0.2500000  -0.0000000  -0.2925418), wk =   0.0039062
        k(  398) = (  -0.2500000  -0.0000000  -0.2194063), wk =   0.0039062
        k(  399) = (  -0.2500000  -0.0000000  -0.1462709), wk =   0.0039062
        k(  400) = (  -0.2500000  -0.0000000  -0.0731354), wk =   0.0039062
        k(  401) = (  -0.2500000   0.1443376   0.0000000), wk =   0.0039062
        k(  402) = (  -0.2500000   0.1443376   0.0731354), wk =   0.0039062
        k(  403) = (  -0.2500000   0.1443376   0.1462709), wk =   0.0039062
        k(  404) = (  -0.2500000   0.1443376   0.2194063), wk =   0.0039062
        k(  405) = (  -0.2500000   0.1443376  -0.2925418), wk =   0.0039062
        k(  406) = (  -0.2500000   0.1443376  -0.2194063), wk =   0.0039062
        k(  407) = (  -0.2500000   0.1443376  -0.1462709), wk =   0.0039062
        k(  408) = (  -0.2500000   0.1443376  -0.0731354), wk =   0.0039062
        k(  409) = (  -0.2500000   0.2886751   0.0000000), wk =   0.0039062
        k(  410) = (  -0.2500000   0.2886751   0.0731354), wk =   0.0039062
        k(  411) = (  -0.2500000   0.2886751   0.1462709), wk =   0.0039062
        k(  412) = (  -0.2500000   0.2886751   0.2194063), wk =   0.0039062
        k(  413) = (  -0.2500000   0.2886751  -0.2925418), wk =   0.0039062
        k(  414) = (  -0.2500000   0.2886751  -0.2194063), wk =   0.0039062
        k(  415) = (  -0.2500000   0.2886751  -0.1462709), wk =   0.0039062
        k(  416) = (  -0.2500000   0.2886751  -0.0731354), wk =   0.0039062
        k(  417) = (  -0.2500000  -0.7216878   0.0000000), wk =   0.0039062
        k(  418) = (  -0.2500000  -0.7216878   0.0731354), wk =   0.0039062
        k(  419) = (  -0.2500000  -0.7216878   0.1462709), wk =   0.0039062
        k(  420) = (  -0.2500000  -0.7216878   0.2194063), wk =   0.0039062
        k(  421) = (  -0.2500000  -0.7216878  -0.2925418), wk =   0.0039062
        k(  422) = (  -0.2500000  -0.7216878  -0.2194063), wk =   0.0039062
        k(  423) = (  -0.2500000  -0.7216878  -0.1462709), wk =   0.0039062
        k(  424) = (  -0.2500000  -0.7216878  -0.0731354), wk =   0.0039062
        k(  425) = (  -0.2500000  -0.5773503   0.0000000), wk =   0.0039062
        k(  426) = (  -0.2500000  -0.5773503   0.0731354), wk =   0.0039062
        k(  427) = (  -0.2500000  -0.5773503   0.1462709), wk =   0.0039062
        k(  428) = (  -0.2500000  -0.5773503   0.2194063), wk =   0.0039062
        k(  429) = (  -0.2500000  -0.5773503  -0.2925418), wk =   0.0039062
        k(  430) = (  -0.2500000  -0.5773503  -0.2194063), wk =   0.0039062
        k(  431) = (  -0.2500000  -0.5773503  -0.1462709), wk =   0.0039062
        k(  432) = (  -0.2500000  -0.5773503  -0.0731354), wk =   0.0039062
        k(  433) = (  -0.2500000  -0.4330127   0.0000000), wk =   0.0039062
        k(  434) = (  -0.2500000  -0.4330127   0.0731354), wk =   0.0039062
        k(  435) = (  -0.2500000  -0.4330127   0.1462709), wk =   0.0039062
        k(  436) = (  -0.2500000  -0.4330127   0.2194063), wk =   0.0039062
        k(  437) = (  -0.2500000  -0.4330127  -0.2925418), wk =   0.0039062
        k(  438) = (  -0.2500000  -0.4330127  -0.2194063), wk =   0.0039062
        k(  439) = (  -0.2500000  -0.4330127  -0.1462709), wk =   0.0039062
        k(  440) = (  -0.2500000  -0.4330127  -0.0731354), wk =   0.0039062
        k(  441) = (  -0.2500000  -0.2886751   0.0000000), wk =   0.0039062
        k(  442) = (  -0.2500000  -0.2886751   0.0731354), wk =   0.0039062
        k(  443) = (  -0.2500000  -0.2886751   0.1462709), wk =   0.0039062
        k(  444) = (  -0.2500000  -0.2886751   0.2194063), wk =   0.0039062
        k(  445) = (  -0.2500000  -0.2886751  -0.2925418), wk =   0.0039062
        k(  446) = (  -0.2500000  -0.2886751  -0.2194063), wk =   0.0039062
        k(  447) = (  -0.2500000  -0.2886751  -0.1462709), wk =   0.0039062
        k(  448) = (  -0.2500000  -0.2886751  -0.0731354), wk =   0.0039062
        k(  449) = (  -0.1250000  -0.0721688   0.0000000), wk =   0.0039062
        k(  450) = (  -0.1250000  -0.0721688   0.0731354), wk =   0.0039062
        k(  451) = (  -0.1250000  -0.0721688   0.1462709), wk =   0.0039062
        k(  452) = (  -0.1250000  -0.0721688   0.2194063), wk =   0.0039062
        k(  453) = (  -0.1250000  -0.0721688  -0.2925418), wk =   0.0039062
        k(  454) = (  -0.1250000  -0.0721688  -0.2194063), wk =   0.0039062
        k(  455) = (  -0.1250000  -0.0721688  -0.1462709), wk =   0.0039062
        k(  456) = (  -0.1250000  -0.0721688  -0.0731354), wk =   0.0039062
        k(  457) = (  -0.1250000   0.0721688   0.0000000), wk =   0.0039062
        k(  458) = (  -0.1250000   0.0721688   0.0731354), wk =   0.0039062
        k(  459) = (  -0.1250000   0.0721688   0.1462709), wk =   0.0039062
        k(  460) = (  -0.1250000   0.0721688   0.2194063), wk =   0.0039062
        k(  461) = (  -0.1250000   0.0721688  -0.2925418), wk =   0.0039062
        k(  462) = (  -0.1250000   0.0721688  -0.2194063), wk =   0.0039062
        k(  463) = (  -0.1250000   0.0721688  -0.1462709), wk =   0.0039062
        k(  464) = (  -0.1250000   0.0721688  -0.0731354), wk =   0.0039062
        k(  465) = (  -0.1250000   0.2165064   0.0000000), wk =   0.0039062
        k(  466) = (  -0.1250000   0.2165064   0.0731354), wk =   0.0039062
        k(  467) = (  -0.1250000   0.2165064   0.1462709), wk =   0.0039062
        k(  468) = (  -0.1250000   0.2165064   0.2194063), wk =   0.0039062
        k(  469) = (  -0.1250000   0.2165064  -0.2925418), wk =   0.0039062
        k(  470) = (  -0.1250000   0.2165064  -0.2194063), wk =   0.0039062
        k(  471) = (  -0.1250000   0.2165064  -0.1462709), wk =   0.0039062
        k(  472) = (  -0.1250000   0.2165064  -0.0731354), wk =   0.0039062
        k(  473) = (  -0.1250000   0.3608439   0.0000000), wk =   0.0039062
        k(  474) = (  -0.1250000   0.3608439   0.0731354), wk =   0.0039062
        k(  475) = (  -0.1250000   0.3608439   0.1462709), wk =   0.0039062
        k(  476) = (  -0.1250000   0.3608439   0.2194063), wk =   0.0039062
        k(  477) = (  -0.1250000   0.3608439  -0.2925418), wk =   0.0039062
        k(  478) = (  -0.1250000   0.3608439  -0.2194063), wk =   0.0039062
        k(  479) = (  -0.1250000   0.3608439  -0.1462709), wk =   0.0039062
        k(  480) = (  -0.1250000   0.3608439  -0.0731354), wk =   0.0039062
        k(  481) = (  -0.1250000  -0.6495191   0.0000000), wk =   0.0039062
        k(  482) = (  -0.1250000  -0.6495191   0.0731354), wk =   0.0039062
        k(  483) = (  -0.1250000  -0.6495191   0.1462709), wk =   0.0039062
        k(  484) = (  -0.1250000  -0.6495191   0.2194063), wk =   0.0039062
        k(  485) = (  -0.1250000  -0.6495191  -0.2925418), wk =   0.0039062
        k(  486) = (  -0.1250000  -0.6495191  -0.2194063), wk =   0.0039062
        k(  487) = (  -0.1250000  -0.6495191  -0.1462709), wk =   0.0039062
        k(  488) = (  -0.1250000  -0.6495191  -0.0731354), wk =   0.0039062
        k(  489) = (  -0.1250000  -0.5051815   0.0000000), wk =   0.0039062
        k(  490) = (  -0.1250000  -0.5051815   0.0731354), wk =   0.0039062
        k(  491) = (  -0.1250000  -0.5051815   0.1462709), wk =   0.0039062
        k(  492) = (  -0.1250000  -0.5051815   0.2194063), wk =   0.0039062
        k(  493) = (  -0.1250000  -0.5051815  -0.2925418), wk =   0.0039062
        k(  494) = (  -0.1250000  -0.5051815  -0.2194063), wk =   0.0039062
        k(  495) = (  -0.1250000  -0.5051815  -0.1462709), wk =   0.0039062
        k(  496) = (  -0.1250000  -0.5051815  -0.0731354), wk =   0.0039062
        k(  497) = (  -0.1250000  -0.3608439   0.0000000), wk =   0.0039062
        k(  498) = (  -0.1250000  -0.3608439   0.0731354), wk =   0.0039062
        k(  499) = (  -0.1250000  -0.3608439   0.1462709), wk =   0.0039062
        k(  500) = (  -0.1250000  -0.3608439   0.2194063), wk =   0.0039062
        k(  501) = (  -0.1250000  -0.3608439  -0.2925418), wk =   0.0039062
        k(  502) = (  -0.1250000  -0.3608439  -0.2194063), wk =   0.0039062
        k(  503) = (  -0.1250000  -0.3608439  -0.1462709), wk =   0.0039062
        k(  504) = (  -0.1250000  -0.3608439  -0.0731354), wk =   0.0039062
        k(  505) = (  -0.1250000  -0.2165064   0.0000000), wk =   0.0039062
        k(  506) = (  -0.1250000  -0.2165064   0.0731354), wk =   0.0039062
        k(  507) = (  -0.1250000  -0.2165064   0.1462709), wk =   0.0039062
        k(  508) = (  -0.1250000  -0.2165064   0.2194063), wk =   0.0039062
        k(  509) = (  -0.1250000  -0.2165064  -0.2925418), wk =   0.0039062
        k(  510) = (  -0.1250000  -0.2165064  -0.2194063), wk =   0.0039062
        k(  511) = (  -0.1250000  -0.2165064  -0.1462709), wk =   0.0039062
        k(  512) = (  -0.1250000  -0.2165064  -0.0731354), wk =   0.0039062

                       cryst. coord.
        k(    1) = (   0.0000000   0.0000000   0.0000000), wk =   0.0039062
        k(    2) = (   0.0000000   0.0000000   0.1250000), wk =   0.0039062
        k(    3) = (   0.0000000   0.0000000   0.2500000), wk =   0.0039062
        k(    4) = (   0.0000000   0.0000000   0.3750000), wk =   0.0039062
        k(    5) = (   0.0000000   0.0000000  -0.5000000), wk =   0.0039062
        k(    6) = (   0.0000000   0.0000000  -0.3750000), wk =   0.0039062
        k(    7) = (   0.0000000   0.0000000  -0.2500000), wk =   0.0039062
        k(    8) = (   0.0000000   0.0000000  -0.1250000), wk =   0.0039062
        k(    9) = (   0.0000000   0.1250000   0.0000000), wk =   0.0039062
        k(   10) = (   0.0000000   0.1250000   0.1250000), wk =   0.0039062
        k(   11) = (   0.0000000   0.1250000   0.2500000), wk =   0.0039062
        k(   12) = (   0.0000000   0.1250000   0.3750000), wk =   0.0039062
        k(   13) = (   0.0000000   0.1250000  -0.5000000), wk =   0.0039062
        k(   14) = (   0.0000000   0.1250000  -0.3750000), wk =   0.0039062
        k(   15) = (   0.0000000   0.1250000  -0.2500000), wk =   0.0039062
        k(   16) = (   0.0000000   0.1250000  -0.1250000), wk =   0.0039062
        k(   17) = (   0.0000000   0.2500000   0.0000000), wk =   0.0039062
        k(   18) = (   0.0000000   0.2500000   0.1250000), wk =   0.0039062
        k(   19) = (   0.0000000   0.2500000   0.2500000), wk =   0.0039062
        k(   20) = (   0.0000000   0.2500000   0.3750000), wk =   0.0039062
        k(   21) = (   0.0000000   0.2500000  -0.5000000), wk =   0.0039062
        k(   22) = (   0.0000000   0.2500000  -0.3750000), wk =   0.0039062
        k(   23) = (   0.0000000   0.2500000  -0.2500000), wk =   0.0039062
        k(   24) = (   0.0000000   0.2500000  -0.1250000), wk =   0.0039062
        k(   25) = (   0.0000000   0.3750000   0.0000000), wk =   0.0039062
        k(   26) = (   0.0000000   0.3750000   0.1250000), wk =   0.0039062
        k(   27) = (   0.0000000   0.3750000   0.2500000), wk =   0.0039062
        k(   28) = (   0.0000000   0.3750000   0.3750000), wk =   0.0039062
        k(   29) = (   0.0000000   0.3750000  -0.5000000), wk =   0.0039062
        k(   30) = (   0.0000000   0.3750000  -0.3750000), wk =   0.0039062
        k(   31) = (   0.0000000   0.3750000  -0.2500000), wk =   0.0039062
        k(   32) = (   0.0000000   0.3750000  -0.1250000), wk =   0.0039062
        k(   33) = (   0.0000000  -0.5000000   0.0000000), wk =   0.0039062
        k(   34) = (   0.0000000  -0.5000000   0.1250000), wk =   0.0039062
        k(   35) = (   0.0000000  -0.5000000   0.2500000), wk =   0.0039062
        k(   36) = (   0.0000000  -0.5000000   0.3750000), wk =   0.0039062
        k(   37) = (   0.0000000  -0.5000000  -0.5000000), wk =   0.0039062
        k(   38) = (   0.0000000  -0.5000000  -0.3750000), wk =   0.0039062
        k(   39) = (   0.0000000  -0.5000000  -0.2500000), wk =   0.0039062
        k(   40) = (   0.0000000  -0.5000000  -0.1250000), wk =   0.0039062
        k(   41) = (   0.0000000  -0.3750000   0.0000000), wk =   0.0039062
        k(   42) = (   0.0000000  -0.3750000   0.1250000), wk =   0.0039062
        k(   43) = (   0.0000000  -0.3750000   0.2500000), wk =   0.0039062
        k(   44) = (   0.0000000  -0.3750000   0.3750000), wk =   0.0039062
        k(   45) = (   0.0000000  -0.3750000  -0.5000000), wk =   0.0039062
        k(   46) = (   0.0000000  -0.3750000  -0.3750000), wk =   0.0039062
        k(   47) = (   0.0000000  -0.3750000  -0.2500000), wk =   0.0039062
        k(   48) = (   0.0000000  -0.3750000  -0.1250000), wk =   0.0039062
        k(   49) = (   0.0000000  -0.2500000   0.0000000), wk =   0.0039062
        k(   50) = (   0.0000000  -0.2500000   0.1250000), wk =   0.0039062
        k(   51) = (   0.0000000  -0.2500000   0.2500000), wk =   0.0039062
        k(   52) = (   0.0000000  -0.2500000   0.3750000), wk =   0.0039062
        k(   53) = (   0.0000000  -0.2500000  -0.5000000), wk =   0.0039062
        k(   54) = (   0.0000000  -0.2500000  -0.3750000), wk =   0.0039062
        k(   55) = (   0.0000000  -0.2500000  -0.2500000), wk =   0.0039062
        k(   56) = (   0.0000000  -0.2500000  -0.1250000), wk =   0.0039062
        k(   57) = (   0.0000000  -0.1250000   0.0000000), wk =   0.0039062
        k(   58) = (   0.0000000  -0.1250000   0.1250000), wk =   0.0039062
        k(   59) = (   0.0000000  -0.1250000   0.2500000), wk =   0.0039062
        k(   60) = (   0.0000000  -0.1250000   0.3750000), wk =   0.0039062
        k(   61) = (   0.0000000  -0.1250000  -0.5000000), wk =   0.0039062
        k(   62) = (   0.0000000  -0.1250000  -0.3750000), wk =   0.0039062
        k(   63) = (   0.0000000  -0.1250000  -0.2500000), wk =   0.0039062
        k(   64) = (   0.0000000  -0.1250000  -0.1250000), wk =   0.0039062
        k(   65) = (   0.1250000   0.0000000   0.0000000), wk =   0.0039062
        k(   66) = (   0.1250000   0.0000000   0.1250000), wk =   0.0039062
        k(   67) = (   0.1250000   0.0000000   0.2500000), wk =   0.0039062
        k(   68) = (   0.1250000   0.0000000   0.3750000), wk =   0.0039062
        k(   69) = (   0.1250000   0.0000000  -0.5000000), wk =   0.0039062
        k(   70) = (   0.1250000   0.0000000  -0.3750000), wk =   0.0039062
        k(   71) = (   0.1250000   0.0000000  -0.2500000), wk =   0.0039062
        k(   72) = (   0.1250000   0.0000000  -0.1250000), wk =   0.0039062
        k(   73) = (   0.1250000   0.1250000   0.0000000), wk =   0.0039062
        k(   74) = (   0.1250000   0.1250000   0.1250000), wk =   0.0039062
        k(   75) = (   0.1250000   0.1250000   0.2500000), wk =   0.0039062
        k(   76) = (   0.1250000   0.1250000   0.3750000), wk =   0.0039062
        k(   77) = (   0.1250000   0.1250000  -0.5000000), wk =   0.0039062
        k(   78) = (   0.1250000   0.1250000  -0.3750000), wk =   0.0039062
        k(   79) = (   0.1250000   0.1250000  -0.2500000), wk =   0.0039062
        k(   80) = (   0.1250000   0.1250000  -0.1250000), wk =   0.0039062
        k(   81) = (   0.1250000   0.2500000   0.0000000), wk =   0.0039062
        k(   82) = (   0.1250000   0.2500000   0.1250000), wk =   0.0039062
        k(   83) = (   0.1250000   0.2500000   0.2500000), wk =   0.0039062
        k(   84) = (   0.1250000   0.2500000   0.3750000), wk =   0.0039062
        k(   85) = (   0.1250000   0.2500000  -0.5000000), wk =   0.0039062
        k(   86) = (   0.1250000   0.2500000  -0.3750000), wk =   0.0039062
        k(   87) = (   0.1250000   0.2500000  -0.2500000), wk =   0.0039062
        k(   88) = (   0.1250000   0.2500000  -0.1250000), wk =   0.0039062
        k(   89) = (   0.1250000   0.3750000   0.0000000), wk =   0.0039062
        k(   90) = (   0.1250000   0.3750000   0.1250000), wk =   0.0039062
        k(   91) = (   0.1250000   0.3750000   0.2500000), wk =   0.0039062
        k(   92) = (   0.1250000   0.3750000   0.3750000), wk =   0.0039062
        k(   93) = (   0.1250000   0.3750000  -0.5000000), wk =   0.0039062
        k(   94) = (   0.1250000   0.3750000  -0.3750000), wk =   0.0039062
        k(   95) = (   0.1250000   0.3750000  -0.2500000), wk =   0.0039062
        k(   96) = (   0.1250000   0.3750000  -0.1250000), wk =   0.0039062
        k(   97) = (   0.1250000  -0.5000000   0.0000000), wk =   0.0039062
        k(   98) = (   0.1250000  -0.5000000   0.1250000), wk =   0.0039062
        k(   99) = (   0.1250000  -0.5000000   0.2500000), wk =   0.0039062
        k(  100) = (   0.1250000  -0.5000000   0.3750000), wk =   0.0039062
        k(  101) = (   0.1250000  -0.5000000  -0.5000000), wk =   0.0039062
        k(  102) = (   0.1250000  -0.5000000  -0.3750000), wk =   0.0039062
        k(  103) = (   0.1250000  -0.5000000  -0.2500000), wk =   0.0039062
        k(  104) = (   0.1250000  -0.5000000  -0.1250000), wk =   0.0039062
        k(  105) = (   0.1250000  -0.3750000   0.0000000), wk =   0.0039062
        k(  106) = (   0.1250000  -0.3750000   0.1250000), wk =   0.0039062
        k(  107) = (   0.1250000  -0.3750000   0.2500000), wk =   0.0039062
        k(  108) = (   0.1250000  -0.3750000   0.3750000), wk =   0.0039062
        k(  109) = (   0.1250000  -0.3750000  -0.5000000), wk =   0.0039062
        k(  110) = (   0.1250000  -0.3750000  -0.3750000), wk =   0.0039062
        k(  111) = (   0.1250000  -0.3750000  -0.2500000), wk =   0.0039062
        k(  112) = (   0.1250000  -0.3750000  -0.1250000), wk =   0.0039062
        k(  113) = (   0.1250000  -0.2500000   0.0000000), wk =   0.0039062
        k(  114) = (   0.1250000  -0.2500000   0.1250000), wk =   0.0039062
        k(  115) = (   0.1250000  -0.2500000   0.2500000), wk =   0.0039062
        k(  116) = (   0.1250000  -0.2500000   0.3750000), wk =   0.0039062
        k(  117) = (   0.1250000  -0.2500000  -0.5000000), wk =   0.0039062
        k(  118) = (   0.1250000  -0.2500000  -0.3750000), wk =   0.0039062
        k(  119) = (   0.1250000  -0.2500000  -0.2500000), wk =   0.0039062
        k(  120) = (   0.1250000  -0.2500000  -0.1250000), wk =   0.0039062
        k(  121) = (   0.1250000  -0.1250000   0.0000000), wk =   0.0039062
        k(  122) = (   0.1250000  -0.1250000   0.1250000), wk =   0.0039062
        k(  123) = (   0.1250000  -0.1250000   0.2500000), wk =   0.0039062
        k(  124) = (   0.1250000  -0.1250000   0.3750000), wk =   0.0039062
        k(  125) = (   0.1250000  -0.1250000  -0.5000000), wk =   0.0039062
        k(  126) = (   0.1250000  -0.1250000  -0.3750000), wk =   0.0039062
        k(  127) = (   0.1250000  -0.1250000  -0.2500000), wk =   0.0039062
        k(  128) = (   0.1250000  -0.1250000  -0.1250000), wk =   0.0039062
        k(  129) = (   0.2500000   0.0000000   0.0000000), wk =   0.0039062
        k(  130) = (   0.2500000   0.0000000   0.1250000), wk =   0.0039062
        k(  131) = (   0.2500000   0.0000000   0.2500000), wk =   0.0039062
        k(  132) = (   0.2500000   0.0000000   0.3750000), wk =   0.0039062
        k(  133) = (   0.2500000   0.0000000  -0.5000000), wk =   0.0039062
        k(  134) = (   0.2500000   0.0000000  -0.3750000), wk =   0.0039062
        k(  135) = (   0.2500000   0.0000000  -0.2500000), wk =   0.0039062
        k(  136) = (   0.2500000   0.0000000  -0.1250000), wk =   0.0039062
        k(  137) = (   0.2500000   0.1250000   0.0000000), wk =   0.0039062
        k(  138) = (   0.2500000   0.1250000   0.1250000), wk =   0.0039062
        k(  139) = (   0.2500000   0.1250000   0.2500000), wk =   0.0039062
        k(  140) = (   0.2500000   0.1250000   0.3750000), wk =   0.0039062
        k(  141) = (   0.2500000   0.1250000  -0.5000000), wk =   0.0039062
        k(  142) = (   0.2500000   0.1250000  -0.3750000), wk =   0.0039062
        k(  143) = (   0.2500000   0.1250000  -0.2500000), wk =   0.0039062
        k(  144) = (   0.2500000   0.1250000  -0.1250000), wk =   0.0039062
        k(  145) = (   0.2500000   0.2500000   0.0000000), wk =   0.0039062
        k(  146) = (   0.2500000   0.2500000   0.1250000), wk =   0.0039062
        k(  147) = (   0.2500000   0.2500000   0.2500000), wk =   0.0039062
        k(  148) = (   0.2500000   0.2500000   0.3750000), wk =   0.0039062
        k(  149) = (   0.2500000   0.2500000  -0.5000000), wk =   0.0039062
        k(  150) = (   0.2500000   0.2500000  -0.3750000), wk =   0.0039062
        k(  151) = (   0.2500000   0.2500000  -0.2500000), wk =   0.0039062
        k(  152) = (   0.2500000   0.2500000  -0.1250000), wk =   0.0039062
        k(  153) = (   0.2500000   0.3750000   0.0000000), wk =   0.0039062
        k(  154) = (   0.2500000   0.3750000   0.1250000), wk =   0.0039062
        k(  155) = (   0.2500000   0.3750000   0.2500000), wk =   0.0039062
        k(  156) = (   0.2500000   0.3750000   0.3750000), wk =   0.0039062
        k(  157) = (   0.2500000   0.3750000  -0.5000000), wk =   0.0039062
        k(  158) = (   0.2500000   0.3750000  -0.3750000), wk =   0.0039062
        k(  159) = (   0.2500000   0.3750000  -0.2500000), wk =   0.0039062
        k(  160) = (   0.2500000   0.3750000  -0.1250000), wk =   0.0039062
        k(  161) = (   0.2500000  -0.5000000   0.0000000), wk =   0.0039062
        k(  162) = (   0.2500000  -0.5000000   0.1250000), wk =   0.0039062
        k(  163) = (   0.2500000  -0.5000000   0.2500000), wk =   0.0039062
        k(  164) = (   0.2500000  -0.5000000   0.3750000), wk =   0.0039062
        k(  165) = (   0.2500000  -0.5000000  -0.5000000), wk =   0.0039062
        k(  166) = (   0.2500000  -0.5000000  -0.3750000), wk =   0.0039062
        k(  167) = (   0.2500000  -0.5000000  -0.2500000), wk =   0.0039062
        k(  168) = (   0.2500000  -0.5000000  -0.1250000), wk =   0.0039062
        k(  169) = (   0.2500000  -0.3750000   0.0000000), wk =   0.0039062
        k(  170) = (   0.2500000  -0.3750000   0.1250000), wk =   0.0039062
        k(  171) = (   0.2500000  -0.3750000   0.2500000), wk =   0.0039062
        k(  172) = (   0.2500000  -0.3750000   0.3750000), wk =   0.0039062
        k(  173) = (   0.2500000  -0.3750000  -0.5000000), wk =   0.0039062
        k(  174) = (   0.2500000  -0.3750000  -0.3750000), wk =   0.0039062
        k(  175) = (   0.2500000  -0.3750000  -0.2500000), wk =   0.0039062
        k(  176) = (   0.2500000  -0.3750000  -0.1250000), wk =   0.0039062
        k(  177) = (   0.2500000  -0.2500000   0.0000000), wk =   0.0039062
        k(  178) = (   0.2500000  -0.2500000   0.1250000), wk =   0.0039062
        k(  179) = (   0.2500000  -0.2500000   0.2500000), wk =   0.0039062
        k(  180) = (   0.2500000  -0.2500000   0.3750000), wk =   0.0039062
        k(  181) = (   0.2500000  -0.2500000  -0.5000000), wk =   0.0039062
        k(  182) = (   0.2500000  -0.2500000  -0.3750000), wk =   0.0039062
        k(  183) = (   0.2500000  -0.2500000  -0.2500000), wk =   0.0039062
        k(  184) = (   0.2500000  -0.2500000  -0.1250000), wk =   0.0039062
        k(  185) = (   0.2500000  -0.1250000   0.0000000), wk =   0.0039062
        k(  186) = (   0.2500000  -0.1250000   0.1250000), wk =   0.0039062
        k(  187) = (   0.2500000  -0.1250000   0.2500000), wk =   0.0039062
        k(  188) = (   0.2500000  -0.1250000   0.3750000), wk =   0.0039062
        k(  189) = (   0.2500000  -0.1250000  -0.5000000), wk =   0.0039062
        k(  190) = (   0.2500000  -0.1250000  -0.3750000), wk =   0.0039062
        k(  191) = (   0.2500000  -0.1250000  -0.2500000), wk =   0.0039062
        k(  192) = (   0.2500000  -0.1250000  -0.1250000), wk =   0.0039062
        k(  193) = (   0.3750000   0.0000000   0.0000000), wk =   0.0039062
        k(  194) = (   0.3750000   0.0000000   0.1250000), wk =   0.0039062
        k(  195) = (   0.3750000   0.0000000   0.2500000), wk =   0.0039062
        k(  196) = (   0.3750000   0.0000000   0.3750000), wk =   0.0039062
        k(  197) = (   0.3750000   0.0000000  -0.5000000), wk =   0.0039062
        k(  198) = (   0.3750000   0.0000000  -0.3750000), wk =   0.0039062
        k(  199) = (   0.3750000   0.0000000  -0.2500000), wk =   0.0039062
        k(  200) = (   0.3750000   0.0000000  -0.1250000), wk =   0.0039062
        k(  201) = (   0.3750000   0.1250000   0.0000000), wk =   0.0039062
        k(  202) = (   0.3750000   0.1250000   0.1250000), wk =   0.0039062
        k(  203) = (   0.3750000   0.1250000   0.2500000), wk =   0.0039062
        k(  204) = (   0.3750000   0.1250000   0.3750000), wk =   0.0039062
        k(  205) = (   0.3750000   0.1250000  -0.5000000), wk =   0.0039062
        k(  206) = (   0.3750000   0.1250000  -0.3750000), wk =   0.0039062
        k(  207) = (   0.3750000   0.1250000  -0.2500000), wk =   0.0039062
        k(  208) = (   0.3750000   0.1250000  -0.1250000), wk =   0.0039062
        k(  209) = (   0.3750000   0.2500000   0.0000000), wk =   0.0039062
        k(  210) = (   0.3750000   0.2500000   0.1250000), wk =   0.0039062
        k(  211) = (   0.3750000   0.2500000   0.2500000), wk =   0.0039062
        k(  212) = (   0.3750000   0.2500000   0.3750000), wk =   0.0039062
        k(  213) = (   0.3750000   0.2500000  -0.5000000), wk =   0.0039062
        k(  214) = (   0.3750000   0.2500000  -0.3750000), wk =   0.0039062
        k(  215) = (   0.3750000   0.2500000  -0.2500000), wk =   0.0039062
        k(  216) = (   0.3750000   0.2500000  -0.1250000), wk =   0.0039062
        k(  217) = (   0.3750000   0.3750000   0.0000000), wk =   0.0039062
        k(  218) = (   0.3750000   0.3750000   0.1250000), wk =   0.0039062
        k(  219) = (   0.3750000   0.3750000   0.2500000), wk =   0.0039062
        k(  220) = (   0.3750000   0.3750000   0.3750000), wk =   0.0039062
        k(  221) = (   0.3750000   0.3750000  -0.5000000), wk =   0.0039062
        k(  222) = (   0.3750000   0.3750000  -0.3750000), wk =   0.0039062
        k(  223) = (   0.3750000   0.3750000  -0.2500000), wk =   0.0039062
        k(  224) = (   0.3750000   0.3750000  -0.1250000), wk =   0.0039062
        k(  225) = (   0.3750000  -0.5000000   0.0000000), wk =   0.0039062
        k(  226) = (   0.3750000  -0.5000000   0.1250000), wk =   0.0039062
        k(  227) = (   0.3750000  -0.5000000   0.2500000), wk =   0.0039062
        k(  228) = (   0.3750000  -0.5000000   0.3750000), wk =   0.0039062
        k(  229) = (   0.3750000  -0.5000000  -0.5000000), wk =   0.0039062
        k(  230) = (   0.3750000  -0.5000000  -0.3750000), wk =   0.0039062
        k(  231) = (   0.3750000  -0.5000000  -0.2500000), wk =   0.0039062
        k(  232) = (   0.3750000  -0.5000000  -0.1250000), wk =   0.0039062
        k(  233) = (   0.3750000  -0.3750000   0.0000000), wk =   0.0039062
        k(  234) = (   0.3750000  -0.3750000   0.1250000), wk =   0.0039062
        k(  235) = (   0.3750000  -0.3750000   0.2500000), wk =   0.0039062
        k(  236) = (   0.3750000  -0.3750000   0.3750000), wk =   0.0039062
        k(  237) = (   0.3750000  -0.3750000  -0.5000000), wk =   0.0039062
        k(  238) = (   0.3750000  -0.3750000  -0.3750000), wk =   0.0039062
        k(  239) = (   0.3750000  -0.3750000  -0.2500000), wk =   0.0039062
        k(  240) = (   0.3750000  -0.3750000  -0.1250000), wk =   0.0039062
        k(  241) = (   0.3750000  -0.2500000   0.0000000), wk =   0.0039062
        k(  242) = (   0.3750000  -0.2500000   0.1250000), wk =   0.0039062
        k(  243) = (   0.3750000  -0.2500000   0.2500000), wk =   0.0039062
        k(  244) = (   0.3750000  -0.2500000   0.3750000), wk =   0.0039062
        k(  245) = (   0.3750000  -0.2500000  -0.5000000), wk =   0.0039062
        k(  246) = (   0.3750000  -0.2500000  -0.3750000), wk =   0.0039062
        k(  247) = (   0.3750000  -0.2500000  -0.2500000), wk =   0.0039062
        k(  248) = (   0.3750000  -0.2500000  -0.1250000), wk =   0.0039062
        k(  249) = (   0.3750000  -0.1250000   0.0000000), wk =   0.0039062
        k(  250) = (   0.3750000  -0.1250000   0.1250000), wk =   0.0039062
        k(  251) = (   0.3750000  -0.1250000   0.2500000), wk =   0.0039062
        k(  252) = (   0.3750000  -0.1250000   0.3750000), wk =   0.0039062
        k(  253) = (   0.3750000  -0.1250000  -0.5000000), wk =   0.0039062
        k(  254) = (   0.3750000  -0.1250000  -0.3750000), wk =   0.0039062
        k(  255) = (   0.3750000  -0.1250000  -0.2500000), wk =   0.0039062
        k(  256) = (   0.3750000  -0.1250000  -0.1250000), wk =   0.0039062
        k(  257) = (  -0.5000000   0.0000000   0.0000000), wk =   0.0039062
        k(  258) = (  -0.5000000   0.0000000   0.1250000), wk =   0.0039062
        k(  259) = (  -0.5000000   0.0000000   0.2500000), wk =   0.0039062
        k(  260) = (  -0.5000000   0.0000000   0.3750000), wk =   0.0039062
        k(  261) = (  -0.5000000   0.0000000  -0.5000000), wk =   0.0039062
        k(  262) = (  -0.5000000   0.0000000  -0.3750000), wk =   0.0039062
        k(  263) = (  -0.5000000   0.0000000  -0.2500000), wk =   0.0039062
        k(  264) = (  -0.5000000   0.0000000  -0.1250000), wk =   0.0039062
        k(  265) = (  -0.5000000   0.1250000   0.0000000), wk =   0.0039062
        k(  266) = (  -0.5000000   0.1250000   0.1250000), wk =   0.0039062
        k(  267) = (  -0.5000000   0.1250000   0.2500000), wk =   0.0039062
        k(  268) = (  -0.5000000   0.1250000   0.3750000), wk =   0.0039062
        k(  269) = (  -0.5000000   0.1250000  -0.5000000), wk =   0.0039062
        k(  270) = (  -0.5000000   0.1250000  -0.3750000), wk =   0.0039062
        k(  271) = (  -0.5000000   0.1250000  -0.2500000), wk =   0.0039062
        k(  272) = (  -0.5000000   0.1250000  -0.1250000), wk =   0.0039062
        k(  273) = (  -0.5000000   0.2500000   0.0000000), wk =   0.0039062
        k(  274) = (  -0.5000000   0.2500000   0.1250000), wk =   0.0039062
        k(  275) = (  -0.5000000   0.2500000   0.2500000), wk =   0.0039062
        k(  276) = (  -0.5000000   0.2500000   0.3750000), wk =   0.0039062
        k(  277) = (  -0.5000000   0.2500000  -0.5000000), wk =   0.0039062
        k(  278) = (  -0.5000000   0.2500000  -0.3750000), wk =   0.0039062
        k(  279) = (  -0.5000000   0.2500000  -0.2500000), wk =   0.0039062
        k(  280) = (  -0.5000000   0.2500000  -0.1250000), wk =   0.0039062
        k(  281) = (  -0.5000000   0.3750000   0.0000000), wk =   0.0039062
        k(  282) = (  -0.5000000   0.3750000   0.1250000), wk =   0.0039062
        k(  283) = (  -0.5000000   0.3750000   0.2500000), wk =   0.0039062
        k(  284) = (  -0.5000000   0.3750000   0.3750000), wk =   0.0039062
        k(  285) = (  -0.5000000   0.3750000  -0.5000000), wk =   0.0039062
        k(  286) = (  -0.5000000   0.3750000  -0.3750000), wk =   0.0039062
        k(  287) = (  -0.5000000   0.3750000  -0.2500000), wk =   0.0039062
        k(  288) = (  -0.5000000   0.3750000  -0.1250000), wk =   0.0039062
        k(  289) = (  -0.5000000  -0.5000000   0.0000000), wk =   0.0039062
        k(  290) = (  -0.5000000  -0.5000000   0.1250000), wk =   0.0039062
        k(  291) = (  -0.5000000  -0.5000000   0.2500000), wk =   0.0039062
        k(  292) = (  -0.5000000  -0.5000000   0.3750000), wk =   0.0039062
        k(  293) = (  -0.5000000  -0.5000000  -0.5000000), wk =   0.0039062
        k(  294) = (  -0.5000000  -0.5000000  -0.3750000), wk =   0.0039062
        k(  295) = (  -0.5000000  -0.5000000  -0.2500000), wk =   0.0039062
        k(  296) = (  -0.5000000  -0.5000000  -0.1250000), wk =   0.0039062
        k(  297) = (  -0.5000000  -0.3750000   0.0000000), wk =   0.0039062
        k(  298) = (  -0.5000000  -0.3750000   0.1250000), wk =   0.0039062
        k(  299) = (  -0.5000000  -0.3750000   0.2500000), wk =   0.0039062
        k(  300) = (  -0.5000000  -0.3750000   0.3750000), wk =   0.0039062
        k(  301) = (  -0.5000000  -0.3750000  -0.5000000), wk =   0.0039062
        k(  302) = (  -0.5000000  -0.3750000  -0.3750000), wk =   0.0039062
        k(  303) = (  -0.5000000  -0.3750000  -0.2500000), wk =   0.0039062
        k(  304) = (  -0.5000000  -0.3750000  -0.1250000), wk =   0.0039062
        k(  305) = (  -0.5000000  -0.2500000   0.0000000), wk =   0.0039062
        k(  306) = (  -0.5000000  -0.2500000   0.1250000), wk =   0.0039062
        k(  307) = (  -0.5000000  -0.2500000   0.2500000), wk =   0.0039062
        k(  308) = (  -0.5000000  -0.2500000   0.3750000), wk =   0.0039062
        k(  309) = (  -0.5000000  -0.2500000  -0.5000000), wk =   0.0039062
        k(  310) = (  -0.5000000  -0.2500000  -0.3750000), wk =   0.0039062
        k(  311) = (  -0.5000000  -0.2500000  -0.2500000), wk =   0.0039062
        k(  312) = (  -0.5000000  -0.2500000  -0.1250000), wk =   0.0039062
        k(  313) = (  -0.5000000  -0.1250000   0.0000000), wk =   0.0039062
        k(  314) = (  -0.5000000  -0.1250000   0.1250000), wk =   0.0039062
        k(  315) = (  -0.5000000  -0.1250000   0.2500000), wk =   0.0039062
        k(  316) = (  -0.5000000  -0.1250000   0.3750000), wk =   0.0039062
        k(  317) = (  -0.5000000  -0.1250000  -0.5000000), wk =   0.0039062
        k(  318) = (  -0.5000000  -0.1250000  -0.3750000), wk =   0.0039062
        k(  319) = (  -0.5000000  -0.1250000  -0.2500000), wk =   0.0039062
        k(  320) = (  -0.5000000  -0.1250000  -0.1250000), wk =   0.0039062
        k(  321) = (  -0.3750000   0.0000000   0.0000000), wk =   0.0039062
        k(  322) = (  -0.3750000   0.0000000   0.1250000), wk =   0.0039062
        k(  323) = (  -0.3750000   0.0000000   0.2500000), wk =   0.0039062
        k(  324) = (  -0.3750000   0.0000000   0.3750000), wk =   0.0039062
        k(  325) = (  -0.3750000   0.0000000  -0.5000000), wk =   0.0039062
        k(  326) = (  -0.3750000   0.0000000  -0.3750000), wk =   0.0039062
        k(  327) = (  -0.3750000   0.0000000  -0.2500000), wk =   0.0039062
        k(  328) = (  -0.3750000   0.0000000  -0.1250000), wk =   0.0039062
        k(  329) = (  -0.3750000   0.1250000   0.0000000), wk =   0.0039062
        k(  330) = (  -0.3750000   0.1250000   0.1250000), wk =   0.0039062
        k(  331) = (  -0.3750000   0.1250000   0.2500000), wk =   0.0039062
        k(  332) = (  -0.3750000   0.1250000   0.3750000), wk =   0.0039062
        k(  333) = (  -0.3750000   0.1250000  -0.5000000), wk =   0.0039062
        k(  334) = (  -0.3750000   0.1250000  -0.3750000), wk =   0.0039062
        k(  335) = (  -0.3750000   0.1250000  -0.2500000), wk =   0.0039062
        k(  336) = (  -0.3750000   0.1250000  -0.1250000), wk =   0.0039062
        k(  337) = (  -0.3750000   0.2500000   0.0000000), wk =   0.0039062
        k(  338) = (  -0.3750000   0.2500000   0.1250000), wk =   0.0039062
        k(  339) = (  -0.3750000   0.2500000   0.2500000), wk =   0.0039062
        k(  340) = (  -0.3750000   0.2500000   0.3750000), wk =   0.0039062
        k(  341) = (  -0.3750000   0.2500000  -0.5000000), wk =   0.0039062
        k(  342) = (  -0.3750000   0.2500000  -0.3750000), wk =   0.0039062
        k(  343) = (  -0.3750000   0.2500000  -0.2500000), wk =   0.0039062
        k(  344) = (  -0.3750000   0.2500000  -0.1250000), wk =   0.0039062
        k(  345) = (  -0.3750000   0.3750000   0.0000000), wk =   0.0039062
        k(  346) = (  -0.3750000   0.3750000   0.1250000), wk =   0.0039062
        k(  347) = (  -0.3750000   0.3750000   0.2500000), wk =   0.0039062
        k(  348) = (  -0.3750000   0.3750000   0.3750000), wk =   0.0039062
        k(  349) = (  -0.3750000   0.3750000  -0.5000000), wk =   0.0039062
        k(  350) = (  -0.3750000   0.3750000  -0.3750000), wk =   0.0039062
        k(  351) = (  -0.3750000   0.3750000  -0.2500000), wk =   0.0039062
        k(  352) = (  -0.3750000   0.3750000  -0.1250000), wk =   0.0039062
        k(  353) = (  -0.3750000  -0.5000000   0.0000000), wk =   0.0039062
        k(  354) = (  -0.3750000  -0.5000000   0.1250000), wk =   0.0039062
        k(  355) = (  -0.3750000  -0.5000000   0.2500000), wk =   0.0039062
        k(  356) = (  -0.3750000  -0.5000000   0.3750000), wk =   0.0039062
        k(  357) = (  -0.3750000  -0.5000000  -0.5000000), wk =   0.0039062
        k(  358) = (  -0.3750000  -0.5000000  -0.3750000), wk =   0.0039062
        k(  359) = (  -0.3750000  -0.5000000  -0.2500000), wk =   0.0039062
        k(  360) = (  -0.3750000  -0.5000000  -0.1250000), wk =   0.0039062
        k(  361) = (  -0.3750000  -0.3750000   0.0000000), wk =   0.0039062
        k(  362) = (  -0.3750000  -0.3750000   0.1250000), wk =   0.0039062
        k(  363) = (  -0.3750000  -0.3750000   0.2500000), wk =   0.0039062
        k(  364) = (  -0.3750000  -0.3750000   0.3750000), wk =   0.0039062
        k(  365) = (  -0.3750000  -0.3750000  -0.5000000), wk =   0.0039062
        k(  366) = (  -0.3750000  -0.3750000  -0.3750000), wk =   0.0039062
        k(  367) = (  -0.3750000  -0.3750000  -0.2500000), wk =   0.0039062
        k(  368) = (  -0.3750000  -0.3750000  -0.1250000), wk =   0.0039062
        k(  369) = (  -0.3750000  -0.2500000   0.0000000), wk =   0.0039062
        k(  370) = (  -0.3750000  -0.2500000   0.1250000), wk =   0.0039062
        k(  371) = (  -0.3750000  -0.2500000   0.2500000), wk =   0.0039062
        k(  372) = (  -0.3750000  -0.2500000   0.3750000), wk =   0.0039062
        k(  373) = (  -0.3750000  -0.2500000  -0.5000000), wk =   0.0039062
        k(  374) = (  -0.3750000  -0.2500000  -0.3750000), wk =   0.0039062
        k(  375) = (  -0.3750000  -0.2500000  -0.2500000), wk =   0.0039062
        k(  376) = (  -0.3750000  -0.2500000  -0.1250000), wk =   0.0039062
        k(  377) = (  -0.3750000  -0.1250000   0.0000000), wk =   0.0039062
        k(  378) = (  -0.3750000  -0.1250000   0.1250000), wk =   0.0039062
        k(  379) = (  -0.3750000  -0.1250000   0.2500000), wk =   0.0039062
        k(  380) = (  -0.3750000  -0.1250000   0.3750000), wk =   0.0039062
        k(  381) = (  -0.3750000  -0.1250000  -0.5000000), wk =   0.0039062
        k(  382) = (  -0.3750000  -0.1250000  -0.3750000), wk =   0.0039062
        k(  383) = (  -0.3750000  -0.1250000  -0.2500000), wk =   0.0039062
        k(  384) = (  -0.3750000  -0.1250000  -0.1250000), wk =   0.0039062
        k(  385) = (  -0.2500000   0.0000000   0.0000000), wk =   0.0039062
        k(  386) = (  -0.2500000   0.0000000   0.1250000), wk =   0.0039062
        k(  387) = (  -0.2500000   0.0000000   0.2500000), wk =   0.0039062
        k(  388) = (  -0.2500000   0.0000000   0.3750000), wk =   0.0039062
        k(  389) = (  -0.2500000   0.0000000  -0.5000000), wk =   0.0039062
        k(  390) = (  -0.2500000   0.0000000  -0.3750000), wk =   0.0039062
        k(  391) = (  -0.2500000   0.0000000  -0.2500000), wk =   0.0039062
        k(  392) = (  -0.2500000   0.0000000  -0.1250000), wk =   0.0039062
        k(  393) = (  -0.2500000   0.1250000   0.0000000), wk =   0.0039062
        k(  394) = (  -0.2500000   0.1250000   0.1250000), wk =   0.0039062
        k(  395) = (  -0.2500000   0.1250000   0.2500000), wk =   0.0039062
        k(  396) = (  -0.2500000   0.1250000   0.3750000), wk =   0.0039062
        k(  397) = (  -0.2500000   0.1250000  -0.5000000), wk =   0.0039062
        k(  398) = (  -0.2500000   0.1250000  -0.3750000), wk =   0.0039062
        k(  399) = (  -0.2500000   0.1250000  -0.2500000), wk =   0.0039062
        k(  400) = (  -0.2500000   0.1250000  -0.1250000), wk =   0.0039062
        k(  401) = (  -0.2500000   0.2500000   0.0000000), wk =   0.0039062
        k(  402) = (  -0.2500000   0.2500000   0.1250000), wk =   0.0039062
        k(  403) = (  -0.2500000   0.2500000   0.2500000), wk =   0.0039062
        k(  404) = (  -0.2500000   0.2500000   0.3750000), wk =   0.0039062
        k(  405) = (  -0.2500000   0.2500000  -0.5000000), wk =   0.0039062
        k(  406) = (  -0.2500000   0.2500000  -0.3750000), wk =   0.0039062
        k(  407) = (  -0.2500000   0.2500000  -0.2500000), wk =   0.0039062
        k(  408) = (  -0.2500000   0.2500000  -0.1250000), wk =   0.0039062
        k(  409) = (  -0.2500000   0.3750000   0.0000000), wk =   0.0039062
        k(  410) = (  -0.2500000   0.3750000   0.1250000), wk =   0.0039062
        k(  411) = (  -0.2500000   0.3750000   0.2500000), wk =   0.0039062
        k(  412) = (  -0.2500000   0.3750000   0.3750000), wk =   0.0039062
        k(  413) = (  -0.2500000   0.3750000  -0.5000000), wk =   0.0039062
        k(  414) = (  -0.2500000   0.3750000  -0.3750000), wk =   0.0039062
        k(  415) = (  -0.2500000   0.3750000  -0.2500000), wk =   0.0039062
        k(  416) = (  -0.2500000   0.3750000  -0.1250000), wk =   0.0039062
        k(  417) = (  -0.2500000  -0.5000000   0.0000000), wk =   0.0039062
        k(  418) = (  -0.2500000  -0.5000000   0.1250000), wk =   0.0039062
        k(  419) = (  -0.2500000  -0.5000000   0.2500000), wk =   0.0039062
        k(  420) = (  -0.2500000  -0.5000000   0.3750000), wk =   0.0039062
        k(  421) = (  -0.2500000  -0.5000000  -0.5000000), wk =   0.0039062
        k(  422) = (  -0.2500000  -0.5000000  -0.3750000), wk =   0.0039062
        k(  423) = (  -0.2500000  -0.5000000  -0.2500000), wk =   0.0039062
        k(  424) = (  -0.2500000  -0.5000000  -0.1250000), wk =   0.0039062
        k(  425) = (  -0.2500000  -0.3750000   0.0000000), wk =   0.0039062
        k(  426) = (  -0.2500000  -0.3750000   0.1250000), wk =   0.0039062
        k(  427) = (  -0.2500000  -0.3750000   0.2500000), wk =   0.0039062
        k(  428) = (  -0.2500000  -0.3750000   0.3750000), wk =   0.0039062
        k(  429) = (  -0.2500000  -0.3750000  -0.5000000), wk =   0.0039062
        k(  430) = (  -0.2500000  -0.3750000  -0.3750000), wk =   0.0039062
        k(  431) = (  -0.2500000  -0.3750000  -0.2500000), wk =   0.0039062
        k(  432) = (  -0.2500000  -0.3750000  -0.1250000), wk =   0.0039062
        k(  433) = (  -0.2500000  -0.2500000   0.0000000), wk =   0.0039062
        k(  434) = (  -0.2500000  -0.2500000   0.1250000), wk =   0.0039062
        k(  435) = (  -0.2500000  -0.2500000   0.2500000), wk =   0.0039062
        k(  436) = (  -0.2500000  -0.2500000   0.3750000), wk =   0.0039062
        k(  437) = (  -0.2500000  -0.2500000  -0.5000000), wk =   0.0039062
        k(  438) = (  -0.2500000  -0.2500000  -0.3750000), wk =   0.0039062
        k(  439) = (  -0.2500000  -0.2500000  -0.2500000), wk =   0.0039062
        k(  440) = (  -0.2500000  -0.2500000  -0.1250000), wk =   0.0039062
        k(  441) = (  -0.2500000  -0.1250000   0.0000000), wk =   0.0039062
        k(  442) = (  -0.2500000  -0.1250000   0.1250000), wk =   0.0039062
        k(  443) = (  -0.2500000  -0.1250000   0.2500000), wk =   0.0039062
        k(  444) = (  -0.2500000  -0.1250000   0.3750000), wk =   0.0039062
        k(  445) = (  -0.2500000  -0.1250000  -0.5000000), wk =   0.0039062
        k(  446) = (  -0.2500000  -0.1250000  -0.3750000), wk =   0.0039062
        k(  447) = (  -0.2500000  -0.1250000  -0.2500000), wk =   0.0039062
        k(  448) = (  -0.2500000  -0.1250000  -0.1250000), wk =   0.0039062
        k(  449) = (  -0.1250000   0.0000000   0.0000000), wk =   0.0039062
        k(  450) = (  -0.1250000   0.0000000   0.1250000), wk =   0.0039062
        k(  451) = (  -0.1250000   0.0000000   0.2500000), wk =   0.0039062
        k(  452) = (  -0.1250000   0.0000000   0.3750000), wk =   0.0039062
        k(  453) = (  -0.1250000   0.0000000  -0.5000000), wk =   0.0039062
        k(  454) = (  -0.1250000   0.0000000  -0.3750000), wk =   0.0039062
        k(  455) = (  -0.1250000   0.0000000  -0.2500000), wk =   0.0039062
        k(  456) = (  -0.1250000   0.0000000  -0.1250000), wk =   0.0039062
        k(  457) = (  -0.1250000   0.1250000   0.0000000), wk =   0.0039062
        k(  458) = (  -0.1250000   0.1250000   0.1250000), wk =   0.0039062
        k(  459) = (  -0.1250000   0.1250000   0.2500000), wk =   0.0039062
        k(  460) = (  -0.1250000   0.1250000   0.3750000), wk =   0.0039062
        k(  461) = (  -0.1250000   0.1250000  -0.5000000), wk =   0.0039062
        k(  462) = (  -0.1250000   0.1250000  -0.3750000), wk =   0.0039062
        k(  463) = (  -0.1250000   0.1250000  -0.2500000), wk =   0.0039062
        k(  464) = (  -0.1250000   0.1250000  -0.1250000), wk =   0.0039062
        k(  465) = (  -0.1250000   0.2500000   0.0000000), wk =   0.0039062
        k(  466) = (  -0.1250000   0.2500000   0.1250000), wk =   0.0039062
        k(  467) = (  -0.1250000   0.2500000   0.2500000), wk =   0.0039062
        k(  468) = (  -0.1250000   0.2500000   0.3750000), wk =   0.0039062
        k(  469) = (  -0.1250000   0.2500000  -0.5000000), wk =   0.0039062
        k(  470) = (  -0.1250000   0.2500000  -0.3750000), wk =   0.0039062
        k(  471) = (  -0.1250000   0.2500000  -0.2500000), wk =   0.0039062
        k(  472) = (  -0.1250000   0.2500000  -0.1250000), wk =   0.0039062
        k(  473) = (  -0.1250000   0.3750000   0.0000000), wk =   0.0039062
        k(  474) = (  -0.1250000   0.3750000   0.1250000), wk =   0.0039062
        k(  475) = (  -0.1250000   0.3750000   0.2500000), wk =   0.0039062
        k(  476) = (  -0.1250000   0.3750000   0.3750000), wk =   0.0039062
        k(  477) = (  -0.1250000   0.3750000  -0.5000000), wk =   0.0039062
        k(  478) = (  -0.1250000   0.3750000  -0.3750000), wk =   0.0039062
        k(  479) = (  -0.1250000   0.3750000  -0.2500000), wk =   0.0039062
        k(  480) = (  -0.1250000   0.3750000  -0.1250000), wk =   0.0039062
        k(  481) = (  -0.1250000  -0.5000000   0.0000000), wk =   0.0039062
        k(  482) = (  -0.1250000  -0.5000000   0.1250000), wk =   0.0039062
        k(  483) = (  -0.1250000  -0.5000000   0.2500000), wk =   0.0039062
        k(  484) = (  -0.1250000  -0.5000000   0.3750000), wk =   0.0039062
        k(  485) = (  -0.1250000  -0.5000000  -0.5000000), wk =   0.0039062
        k(  486) = (  -0.1250000  -0.5000000  -0.3750000), wk =   0.0039062
        k(  487) = (  -0.1250000  -0.5000000  -0.2500000), wk =   0.0039062
[...]

    -3.6888   0.1017   9.1116  13.7495  15.4320  17.2069  18.7074  19.7862

     occupation numbers 
     1.0000   1.0000   1.0000   0.0000   0.0000   0.0000   0.0000   0.0000

          k =-0.1250 0.0722-0.1463 (   815 PWs)   bands (ev):

    -3.9075   0.8986   7.2073  14.4365  16.6979  17.1331  19.2165  19.9690

     occupation numbers 
     1.0000   1.0000   1.0000   0.0000   0.0000   0.0000   0.0000   0.0000

          k =-0.1250 0.0722-0.0731 (   820 PWs)   bands (ev):

    -4.0882   2.0001   5.4397  14.4791  16.9014  18.3350  19.9476  20.5241

     occupation numbers 
     1.0000   1.0000   1.0000   0.0000   0.0000   0.0000   0.0000   0.0000

          k =-0.1250 0.2165 0.0000 (   819 PWs)   bands (ev):

    -3.3282   3.6950   5.1180  11.8545  13.2481  18.4960  18.7383  19.3357

     occupation numbers 
     1.0000   1.0000   1.0000   0.0000   0.0000   0.0000   0.0000   0.0000

          k =-0.1250 0.2165 0.0731 (   820 PWs)   bands (ev):

    -3.2622   2.8279   6.1783  11.9422  13.3040  17.8158  18.3251  19.4326

     occupation numbers 
     1.0000   1.0000   1.0000   0.0000   0.0000   0.0000   0.0000   0.0000

          k =-0.1250 0.2165 0.1463 (   819 PWs)   bands (ev):

    -3.0835   1.7282   7.8888  12.1174  13.4559  16.9126  17.2593  17.9329

     occupation numbers 
     1.0000   1.0000   1.0000   0.0000   0.0000   0.0000   0.0000   0.0000

          k =-0.1250 0.2165 0.2194 (   824 PWs)   bands (ev):

    -2.8668   0.9312   9.6806  12.3218  13.6324  15.1787  16.3699  17.1692

     occupation numbers 
     1.0000   1.0000   1.0000   0.0000   0.0000   0.0000   0.0000   0.0000

          k =-0.1250 0.2165-0.2925 (   820 PWs)   bands (ev):

    -2.7598   0.6265  10.9568  12.1001  13.7574  14.0465  16.1591  16.9183

     occupation numbers 
     1.0000   1.0000   0.0000   0.0000   0.0000   0.0000   0.0000   0.0000

          k =-0.1250 0.2165-0.2194 (   824 PWs)   bands (ev):

    -2.8656   0.9239   9.8743  11.9403  13.6612  15.2576  16.5013  17.1719

     occupation numbers 
     1.0000   1.0000   1.0000   0.0000   0.0000   0.0000   0.0000   0.0000

          k =-0.1250 0.2165-0.1463 (   819 PWs)   bands (ev):

    -3.0822   1.7140   7.9911  11.9221  13.4667  16.6736  17.5412  18.0951

     occupation numbers 
     1.0000   1.0000   1.0000   0.0000   0.0000   0.0000   0.0000   0.0000

          k =-0.1250 0.2165-0.0731 (   820 PWs)   bands (ev):

    -3.2615   2.8072   6.2349  11.8603  13.3078  17.7203  18.3084  19.8178

     occupation numbers 
     1.0000   1.0000   1.0000   0.0000   0.0000   0.0000   0.0000   0.0000

          k =-0.1250 0.3608 0.0000 (   829 PWs)   bands (ev):

    -1.6876   5.2644   6.6590   7.9286  11.1714  14.5893  15.9234  17.3077

     occupation numbers 
     1.0000   1.0000   1.0000   1.0000   0.0000   0.0000   0.0000   0.0000

          k =-0.1250 0.3608 0.0731 (   826 PWs)   bands (ev):

    -1.6230   4.4391   7.4071   8.2454  11.2377  14.0348  16.0128  17.5252

     occupation numbers 
     1.0000   1.0000   1.0000   1.0000   0.0000   0.0000   0.0000   0.0000

          k =-0.1250 0.3608 0.1463 (   828 PWs)   bands (ev):

    -1.4478   3.3552   7.9145   9.5219  11.3991  13.1474  15.6414  18.1263

     occupation numbers 
     1.0000   1.0000   1.0000   1.0000   0.0000   0.0000   0.0000   0.0000

          k =-0.1250 0.3608 0.2194 (   831 PWs)   bands (ev):

    -1.2357   2.5675   8.1512  10.9607  11.5727  12.7516  15.1323  16.6663

     occupation numbers 
     1.0000   1.0000   1.0000   0.0000   0.0000   0.0000   0.0000   0.0000

          k =-0.1250 0.3608-0.2925 (   834 PWs)   bands (ev):

    -1.1309   2.2646   8.2625  11.5822  11.6122  12.8311  15.0503  15.6173

     occupation numbers 
     1.0000   1.0000   1.0000   0.0000   0.0000   0.0000   0.0000   0.0000

          k =-0.1250 0.3608-0.2194 (   831 PWs)   bands (ev):

    -1.2336   2.5530   8.2042  11.2721  11.6044  12.0744  15.2864  17.0262

     occupation numbers 
     1.0000   1.0000   1.0000   0.0000   0.0000   0.0000   0.0000   0.0000

          k =-0.1250 0.3608-0.1463 (   828 PWs)   bands (ev):

    -1.4455   3.3255   8.0531   9.5262  11.3599  12.7869  15.9015  18.4244

     occupation numbers 
     1.0000   1.0000   1.0000   1.0000   0.0000   0.0000   0.0000   0.0000

          k =-0.1250 0.3608-0.0731 (   826 PWs)   bands (ev):

    -1.6217   4.3910   7.7966   7.9386  11.2179  13.7510  16.5558  17.2815

     occupation numbers 
     1.0000   1.0000   1.0000   1.0000   0.0000   0.0000   0.0000   0.0000

          k =-0.1250-0.6495 0.0000 (   835 PWs)   bands (ev):

     0.7237   3.9762   7.6727   8.8600  10.2811  10.9970  12.5508  16.6045

     occupation numbers 
     1.0000   1.0000   1.0000   1.0000   1.0000   0.0000   0.0000   0.0000

          k =-0.1250-0.6495 0.0731 (   834 PWs)   bands (ev):

     0.7855   4.0396   6.8598   9.2135  10.3093  11.0904  13.2536  16.2530

     occupation numbers 
     1.0000   1.0000   1.0000   1.0000   0.9999   0.0000   0.0000   0.0000

          k =-0.1250-0.6495 0.1463 (   830 PWs)   bands (ev):

     0.9541   4.1972   5.7957   8.7896  10.4574  12.1790  14.3640  15.9689

     occupation numbers 
     1.0000   1.0000   1.0000   1.0000   0.9803   0.0000   0.0000   0.0000

          k =-0.1250-0.6495 0.2194 (   825 PWs)   bands (ev):

     1.1575   4.3561   5.0603   8.1649  10.6577  13.5182  14.7003  16.8406

     occupation numbers 
     1.0000   1.0000   1.0000   1.0000   0.0199   0.0000   0.0000   0.0000

          k =-0.1250-0.6495-0.2925 (   834 PWs)   bands (ev):

     1.2583   4.3612   4.8520   7.9212  10.7567  13.8227  15.1828  17.2348

     occupation numbers 
     1.0000   1.0000   1.0000   1.0000   0.0004   0.0000   0.0000   0.0000

          k =-0.1250-0.6495-0.2194 (   825 PWs)   bands (ev):

     1.1618   4.3168   5.0819   8.2084  10.6927  13.3722  14.6061  17.0403

     occupation numbers 
     1.0000   1.0000   1.0000   1.0000   0.0052   0.0000   0.0000   0.0000

          k =-0.1250-0.6495-0.1463 (   830 PWs)   bands (ev):

     0.9588   4.1727   5.7823   8.9379  10.5449  11.7629  14.7264  15.7711

     occupation numbers 
     1.0000   1.0000   1.0000   1.0000   0.6217   0.0000   0.0000   0.0000

          k =-0.1250-0.6495-0.0731 (   834 PWs)   bands (ev):

     0.7882   4.0289   6.8003   9.8659  10.0828  10.5158  13.5475  16.1498

     occupation numbers 
     1.0000   1.0000   1.0000   1.0000   1.0000   0.8363   0.0000   0.0000

          k =-0.1250-0.5052 0.0000 (   835 PWs)   bands (ev):

     0.7068   4.0117   7.7034   8.7215  10.3192  11.0185  12.6285  16.6355

     occupation numbers 
     1.0000   1.0000   1.0000   1.0000   0.9999   0.0000   0.0000   0.0000

          k =-0.1250-0.5052 0.0731 (   834 PWs)   bands (ev):

     0.7704   4.0648   6.8214   9.6379  10.0357  10.7073  13.6434  16.2002

     occupation numbers 
     1.0000   1.0000   1.0000   1.0000   1.0000   0.0029   0.0000   0.0000

          k =-0.1250-0.5052 0.1463 (   830 PWs)   bands (ev):

     0.9400   4.2110   5.7859   8.9615  10.3403  11.8335  15.0016  15.7241

     occupation numbers 
     1.0000   1.0000   1.0000   1.0000   0.9998   0.0000   0.0000   0.0000

          k =-0.1250-0.5052 0.2194 (   825 PWs)   bands (ev):

     1.1426   4.3593   5.0742   8.2243  10.5826  13.2442  14.9902  17.0617

     occupation numbers 
     1.0000   1.0000   1.0000   1.0000   0.2751   0.0000   0.0000   0.0000

          k =-0.1250-0.5052-0.2925 (   834 PWs)   bands (ev):

     1.2400   4.4011   4.8411   7.9274  10.6963  13.8831  15.1007  17.7042

     occupation numbers 
     1.0000   1.0000   1.0000   1.0000   0.0045   0.0000   0.0000   0.0000

          k =-0.1250-0.5052-0.2194 (   825 PWs)   bands (ev):

     1.1408   4.3983   5.0386   8.1600  10.6506  13.7991  14.2952  16.9623

     occupation numbers 
     1.0000   1.0000   1.0000   1.0000   0.0262   0.0000   0.0000   0.0000

          k =-0.1250-0.5052-0.1463 (   830 PWs)   bands (ev):

     0.9381   4.2359   5.7682   8.7641  10.5312  12.1446  14.4480  15.8198

     occupation numbers 
     1.0000   1.0000   1.0000   1.0000   0.7374   0.0000   0.0000   0.0000

          k =-0.1250-0.5052-0.0731 (   834 PWs)   bands (ev):

     0.7693   4.0759   6.8272   9.1680  10.4386  11.0008  13.3474  16.1876

     occupation numbers 
     1.0000   1.0000   1.0000   1.0000   0.9904   0.0000   0.0000   0.0000

          k =-0.1250-0.3608 0.0000 (   829 PWs)   bands (ev):

    -1.6977   5.2854   6.6132   8.0014  11.0607  14.6001  16.0972  17.5489

     occupation numbers 
     1.0000   1.0000   1.0000   1.0000   0.0000   0.0000   0.0000   0.0000

          k =-0.1250-0.3608 0.0731 (   826 PWs)   bands (ev):

    -1.6323   4.4084   7.7153   8.0140  11.1560  13.8187  16.5017  17.6657

     occupation numbers 
     1.0000   1.0000   1.0000   1.0000   0.0000   0.0000   0.0000   0.0000

          k =-0.1250-0.3608 0.1463 (   828 PWs)   bands (ev):

    -1.4566   3.3332   8.1418   9.3447  11.4030  12.8619  15.9125  18.7329

     occupation numbers 
     1.0000   1.0000   1.0000   1.0000   0.0000   0.0000   0.0000   0.0000

          k =-0.1250-0.3608 0.2194 (   831 PWs)   bands (ev):

    -1.2448   2.5549   8.2998  10.6998  11.9809  12.2420  15.1984  17.1820

     occupation numbers 
     1.0000   1.0000   1.0000   0.0039   0.0000   0.0000   0.0000   0.0000

          k =-0.1250-0.3608-0.2925 (   834 PWs)   bands (ev):

    -1.1415   2.2613   8.3651  11.0561  11.8752  13.2101  14.3919  16.2503

     occupation numbers 
     1.0000   1.0000   1.0000   0.0000   0.0000   0.0000   0.0000   0.0000

          k =-0.1250-0.3608-0.2194 (   831 PWs)   bands (ev):

    -1.2453   2.5594   8.2558  10.7743  11.6546  12.7315  14.9343  17.2038

     occupation numbers 
     1.0000   1.0000   1.0000   0.0002   0.0000   0.0000   0.0000   0.0000

          k =-0.1250-0.3608-0.1463 (   828 PWs)   bands (ev):

    -1.4571   3.3431   8.0164   9.5115  11.2451  13.1599  15.6936  18.4295

     occupation numbers 
     1.0000   1.0000   1.0000   1.0000   0.0000   0.0000   0.0000   0.0000

          k =-0.1250-0.3608-0.0731 (   826 PWs)   bands (ev):

    -1.6326   4.4265   7.4616   8.2737  11.0917  14.0431  16.2463  17.6158

     occupation numbers 
     1.0000   1.0000   1.0000   1.0000   0.0000   0.0000   0.0000   0.0000

          k =-0.1250-0.2165 0.0000 (   819 PWs)   bands (ev):

    -3.3337   3.7010   5.0983  12.3735  12.6388  18.3949  18.6393  20.5841

     occupation numbers 
     1.0000   1.0000   1.0000   0.0000   0.0000   0.0000   0.0000   0.0000

          k =-0.1250-0.2165 0.0731 (   820 PWs)   bands (ev):

    -3.2673   2.8174   6.1912  12.3996  12.7182  17.9310  18.1722  20.0209

     occupation numbers 
     1.0000   1.0000   1.0000   0.0000   0.0000   0.0000   0.0000   0.0000

          k =-0.1250-0.2165 0.1463 (   819 PWs)   bands (ev):

    -3.0884   1.7194   7.9181  12.4947  12.9004  16.8925  17.3702  18.2178

     occupation numbers 
     1.0000   1.0000   1.0000   0.0000   0.0000   0.0000   0.0000   0.0000

          k =-0.1250-0.2165 0.2194 (   824 PWs)   bands (ev):

    -2.8718   0.9255   9.7227  12.5881  13.1521  15.1873  16.7161  17.1396

     occupation numbers 
     1.0000   1.0000   1.0000   0.0000   0.0000   0.0000   0.0000   0.0000

          k =-0.1250-0.2165-0.2925 (   820 PWs)   bands (ev):

    -2.7654   0.6243  10.8182  12.6535  13.3483  13.9156  16.4605  16.8505

     occupation numbers 
     1.0000   1.0000   0.0000   0.0000   0.0000   0.0000   0.0000   0.0000

          k =-0.1250-0.2165-0.2194 (   824 PWs)   bands (ev):

    -2.8717   0.9253   9.7196  12.7358  12.9706  15.2429  16.6988  17.1340

     occupation numbers 
     1.0000   1.0000   1.0000   0.0000   0.0000   0.0000   0.0000   0.0000

          k =-0.1250-0.2165-0.1463 (   819 PWs)   bands (ev):

    -3.0883   1.7192   7.9176  12.5875  12.7950  16.9446  17.3466  18.2053

     occupation numbers 
     1.0000   1.0000   1.0000   0.0000   0.0000   0.0000   0.0000   0.0000

          k =-0.1250-0.2165-0.0731 (   820 PWs)   bands (ev):

    -3.2673   2.8171   6.1914  12.4408  12.6725  17.9406  18.1688  20.0418

     occupation numbers 
     1.0000   1.0000   1.0000   0.0000   0.0000   0.0000   0.0000   0.0000

     the Fermi energy is    10.5577 ev

!    total energy              =     -15.72872560 Ry
     estimated scf accuracy    <       0.00700626 Ry
     smearing contrib. (-TS)   =      -0.00023944 Ry
     internal energy E=F+TS    =     -15.72848616 Ry

     The total energy is F=E-TS. E is the sum of the following terms:
     one-electron contribution =       7.93943408 Ry
     hartree contribution      =       0.59234515 Ry
     xc contribution           =      -4.97774894 Ry
     ewald contribution        =     -19.28251645 Ry

     convergence has been achieved in   3 iterations

     Forces acting on atoms (cartesian axes, Ry/au):

     atom    1 type  1   force =    -0.02028844    0.01175346    0.13280307
     atom    2 type  1   force =     0.02028844   -0.01175346   -0.13280307
     The non-local contrib.  to forces
     atom    1 type  1   force =    -0.07812637    0.04174168    0.16924938
     atom    2 type  1   force =     0.07812869   -0.04174027   -0.16925748
     The ionic contribution  to forces
     atom    1 type  1   force =    -0.09960059    0.05405601    1.76260156
     atom    2 type  1   force =     0.09960059   -0.05405601   -1.76260156
     The local contribution  to forces
     atom    1 type  1   force =     0.15989134   -0.08538037   -1.71282191
     atom    2 type  1   force =    -0.15989344    0.08538226    1.71282280
     The core correction contribution to forces
     atom    1 type  1   force =     0.00000000    0.00000000    0.00000000
     atom    2 type  1   force =     0.00000000    0.00000000    0.00000000
     The Hubbard contrib.    to forces
     atom    1 type  1   force =     0.00000000    0.00000000    0.00000000
     atom    2 type  1   force =     0.00000000    0.00000000    0.00000000
     The SCF correction term to forces
     atom    1 type  1   force =    -0.00245273    0.00133777   -0.08622797
     atom    2 type  1   force =     0.00245269   -0.00133782    0.08623116

     Total force =     0.190717     Total SCF correction =     0.122011
     SCF correction compared to forces is large: reduce conv_thr to get better values


     Computing stress (Cartesian axis) and pressure

          total   stress  (Ry/bohr**3)                   (kbar)     P=      119.18
   0.00053462  -0.00015914  -0.00052108           78.64      -23.41      -76.65
  -0.00015914   0.00065932   0.00026091          -23.41       96.99       38.38
  -0.00052108   0.00026091   0.00123655          -76.65       38.38      181.90

     kinetic stress (kbar)   3266.20     25.68    -24.83
                               25.68   3278.42      8.72
                              -24.83      8.72   3442.18

     local   stress (kbar)  -1951.80    271.06    254.87
                              271.06  -1996.74   -139.62
                              254.87   -139.62    237.53

     nonloc. stress (kbar)   3845.50    -33.61    -96.26
                              -33.61   3847.82     54.60
                              -96.26     54.60   4020.41

     hartree stress (kbar)    402.75    -16.38      1.43
                              -16.38    406.35     -0.93
                                1.43     -0.93   -359.52

     exc-cor stress (kbar)  -1148.91      0.00      0.00
                                0.00  -1148.91      0.00
                                0.00      0.00  -1148.91

     corecor stress (kbar)      0.00      0.00      0.00
                                0.00      0.00      0.00
                                0.00      0.00      0.00

     ewald   stress (kbar)  -4335.08   -270.15   -211.86
                             -270.15  -4289.94    115.61
                             -211.86    115.61  -6009.78

     hubbard stress (kbar)      0.00      0.00      0.00
                                0.00      0.00      0.00
                                0.00      0.00      0.00

     DFT-D   stress (kbar)      0.00      0.00      0.00
                                0.00      0.00      0.00
                                0.00      0.00      0.00

     XDM     stress (kbar)      0.00      0.00      0.00
                                0.00      0.00      0.00
                                0.00      0.00      0.00

     dft-nl  stress (kbar)      0.00      0.00      0.00
                                0.00      0.00      0.00
                                0.00      0.00      0.00

     TS-vdW  stress (kbar)      0.00      0.00      0.00
                                0.00      0.00      0.00
                                0.00      0.00      0.00

     MDB     stress (kbar)      0.00      0.00      0.00
                                0.00      0.00      0.00
                                0.00      0.00      0.00

     3D-RISM stress (kbar)      0.00      0.00      0.00
                                0.00      0.00      0.00
                                0.00      0.00      0.00


     Writing all to output data dir ../tmp/Si/Si.save/ :
     XML data file, charge density, pseudopotentials, collected wavefunctions

     init_run     :      2.54s CPU      2.68s WALL (       1 calls)
     electrons    :     26.04s CPU     27.65s WALL (       1 calls)
     forces       :      0.34s CPU      0.37s WALL (       1 calls)
     stress       :      3.13s CPU      3.23s WALL (       1 calls)

     Called by init_run:
     wfcinit      :      2.21s CPU      2.35s WALL (       1 calls)
     wfcinit:atom :      0.06s CPU      0.06s WALL (     512 calls)
     wfcinit:wfcr :      1.84s CPU      1.96s WALL (     512 calls)
     potinit      :      0.01s CPU      0.01s WALL (       1 calls)
     hinit0       :      0.26s CPU      0.26s WALL (       1 calls)

     Called by electrons:
     c_bands      :     21.99s CPU     23.41s WALL (       4 calls)
     sum_band     :      4.04s CPU      4.21s WALL (       4 calls)
     v_of_rho     :      0.01s CPU      0.01s WALL (       4 calls)
     v_h          :      0.00s CPU      0.00s WALL (       4 calls)
     v_xc         :      0.01s CPU      0.01s WALL (       4 calls)
     mix_rho      :      0.00s CPU      0.00s WALL (       4 calls)

     Called by c_bands:
     init_us_2    :      1.00s CPU      1.06s WALL (    5632 calls)
     cegterg      :     21.34s CPU     22.69s WALL (    2048 calls)

     Called by sum_band:
     sum_band:wei :      0.01s CPU      0.01s WALL (       4 calls)
     sum_band:loo :      4.03s CPU      4.20s WALL (       4 calls)
     sum_band:buf :      0.05s CPU      0.05s WALL (    2048 calls)
     sum_band:ini :      0.35s CPU      0.36s WALL (    2048 calls)

     Called by *egterg:
     cdiaghg      :      0.84s CPU      0.89s WALL (    5890 calls)
     cegterg:over :      0.38s CPU      0.41s WALL (    4354 calls)
     cegterg:upda :      0.29s CPU      0.31s WALL (    4354 calls)
     cegterg:last :      0.34s CPU      0.37s WALL (    3831 calls)
     h_psi        :     20.85s CPU     22.18s WALL (    6914 calls)
     g_psi        :      0.12s CPU      0.13s WALL (    4354 calls)

     Called by h_psi:
     h_psi:calbec :      0.36s CPU      0.38s WALL (    6914 calls)
     vloc_psi     :     20.07s CPU     21.33s WALL (    6914 calls)
     add_vuspsi   :      0.26s CPU      0.28s WALL (    6914 calls)

     General routines
     calbec       :      0.50s CPU      0.55s WALL (    9474 calls)
     fft          :      0.24s CPU      0.24s WALL (      17 calls)
     ffts         :      0.00s CPU      0.00s WALL (       4 calls)
     fftw         :     20.35s CPU     21.57s WALL (  105828 calls)


     PWSCF        :     32.14s CPU     34.12s WALL


   This run was terminated on:  15:24:31   7May2024            

=------------------------------------------------------------------------------=
   JOB DONE.
=------------------------------------------------------------------------------=
