
     Program PWSCF v.7.3.1 starts on  6May2024 at 18:58:36 

     This program is part of the open-source Quantum ESPRESSO suite
     for quantum simulation of materials; please cite
         "P. Giannozzi et al., J. Phys.:Condens. Matter 21 395502 (2009);
         "P. Giannozzi et al., J. Phys.:Condens. Matter 29 465901 (2017);
         "P. Giannozzi et al., J. Chem. Phys. 152 154105 (2020);
          URL http://www.quantum-espresso.org", 
     in publications or presentations arising from this work. More details at
     http://www.quantum-espresso.org/quote

     Serial version
     1930 MiB available memory on the printing compute node when the environment starts

     Reading input from Si1.pw.in

     Current dimensions of program PWSCF are:
     Max number of different atomic species (ntypx) = 10
     Max number of k-points (npk) =  40000
     Max angular momentum in pseudopotentials (lmaxx) =  4


     G-vector sticks info
     --------------------
     sticks:   dense  smooth     PW     G-vecs:    dense   smooth      PW
     Sum         261     261     95                 5805     5805    1319

     Using Slab Decomposition



     bravais-lattice index     =            0
     lattice parameter (alat)  =       5.0969  a.u.
     unit-cell volume          =     169.6441 (a.u.)^3
     number of atoms/cell      =            2
     number of atomic types    =            1
     number of electrons       =         8.00
     number of Kohn-Sham states=            8
     kinetic-energy cutoff     =      40.0000  Ry
     charge density cutoff     =     160.0000  Ry
     scf convergence threshold =      2.0E-02
     mixing beta               =       0.1000
     number of iterations used =            8  plain     mixing
     Exchange-correlation=  SLA  PZ   NOGX NOGC
                           (   1   1   0   0   0   0   0)

     celldm(1)=   5.096873  celldm(2)=   0.000000  celldm(3)=   0.000000
     celldm(4)=   0.000000  celldm(5)=   0.000000  celldm(6)=   0.000000

     crystal axes: (cart. coord. in units of alat)
               a(1) = (   0.996816  -0.069364  -0.039328 )  
               a(2) = (  -0.438416   0.812100   0.059019 )  
               a(3) = (  -0.009775   0.006792   1.645204 )  

     reciprocal axes: (cart. coord. in units 2 pi/alat)
               b(1) = (  1.042489  0.562511  0.003872 )  
               b(2) = (  0.088860  1.279692 -0.004755 )  
               b(3) = (  0.021733 -0.032460  0.608091 )  


     PseudoPot. # 1 for Si read from file:
     ../pseudo/Si.pz-vbc.UPF
     MD5 check sum: 6dfa03ddd5817404712e03e4d12deb78
     Pseudo is Norm-conserving, Zval =  4.0
     Generated by new atomic code, or converted to UPF format
     Using radial grid of  431 points,  2 beta functions with: 
                l(1) =   0
                l(2) =   1

     atomic species   valence    mass     pseudopotential
     Si                4.00    28.08600     Si( 1.00)

     No symmetry found


                                    s                        frac. trans.

      isym =  1     identity                                     

 cryst.   s( 1) = (     1          0          0      )
                  (     0          1          0      )
                  (     0          0          1      )

 cart.    s( 1) = (  1.0000000  0.0000000  0.0000000 )
                  (  0.0000000  1.0000000 -0.0000000 )
                  (  0.0000000  0.0000000  1.0000000 )


   Cartesian axes

     site n.     atom                  positions (alat units)
         1        Si     tau(   1) = (   0.0375510   0.5199770   0.4375376  )
         2        Si     tau(   2) = (   0.5110739   0.2295518   1.2273573  )

   Crystallographic axes

     site n.     atom                  positions (cryst. coord.)
         1        Si     tau(   1) = (  0.3333333  0.6666667  0.2500000  )
         2        Si     tau(   2) = (  0.6666667  0.3333333  0.7500000  )

     number of k points=   512  Fermi-Dirac smearing, width (Ry)=  0.0019
                       cart. coord. in units 2pi/alat
        k(    1) = (   0.0000000   0.0000000   0.0000000), wk =   0.0039062
        k(    2) = (   0.0027166  -0.0040575   0.0760113), wk =   0.0039062
        k(    3) = (   0.0054331  -0.0081150   0.1520226), wk =   0.0039062
        k(    4) = (   0.0081497  -0.0121726   0.2280339), wk =   0.0039062
        k(    5) = (  -0.0108663   0.0162301  -0.3040453), wk =   0.0039062
        k(    6) = (  -0.0081497   0.0121726  -0.2280339), wk =   0.0039062
        k(    7) = (  -0.0054331   0.0081150  -0.1520226), wk =   0.0039062
        k(    8) = (  -0.0027166   0.0040575  -0.0760113), wk =   0.0039062
        k(    9) = (   0.0111075   0.1599615  -0.0005944), wk =   0.0039062
        k(   10) = (   0.0138241   0.1559040   0.0754169), wk =   0.0039062
        k(   11) = (   0.0165406   0.1518465   0.1514282), wk =   0.0039062
        k(   12) = (   0.0192572   0.1477890   0.2274396), wk =   0.0039062
        k(   13) = (   0.0002412   0.1761916  -0.3046396), wk =   0.0039062
        k(   14) = (   0.0029578   0.1721341  -0.2286283), wk =   0.0039062
        k(   15) = (   0.0056744   0.1680766  -0.1526170), wk =   0.0039062
        k(   16) = (   0.0083909   0.1640190  -0.0766057), wk =   0.0039062
        k(   17) = (   0.0222150   0.3199230  -0.0011888), wk =   0.0039062
        k(   18) = (   0.0249315   0.3158655   0.0748225), wk =   0.0039062
        k(   19) = (   0.0276481   0.3118080   0.1508338), wk =   0.0039062
        k(   20) = (   0.0303647   0.3077505   0.2268452), wk =   0.0039062
        k(   21) = (   0.0113487   0.3361531  -0.3052340), wk =   0.0039062
        k(   22) = (   0.0140653   0.3320956  -0.2292227), wk =   0.0039062
        k(   23) = (   0.0167818   0.3280381  -0.1532114), wk =   0.0039062
        k(   24) = (   0.0194984   0.3239806  -0.0772001), wk =   0.0039062
        k(   25) = (   0.0333225   0.4798846  -0.0017832), wk =   0.0039062
        k(   26) = (   0.0360390   0.4758270   0.0742281), wk =   0.0039062
        k(   27) = (   0.0387556   0.4717695   0.1502395), wk =   0.0039062
        k(   28) = (   0.0414722   0.4677120   0.2262508), wk =   0.0039062
        k(   29) = (   0.0224562   0.4961147  -0.3058284), wk =   0.0039062
        k(   30) = (   0.0251728   0.4920571  -0.2298171), wk =   0.0039062
        k(   31) = (   0.0278893   0.4879996  -0.1538058), wk =   0.0039062
        k(   32) = (   0.0306059   0.4839421  -0.0777945), wk =   0.0039062
        k(   33) = (  -0.0444300  -0.6398461   0.0023776), wk =   0.0039062
        k(   34) = (  -0.0417134  -0.6439036   0.0783889), wk =   0.0039062
        k(   35) = (  -0.0389968  -0.6479611   0.1544002), wk =   0.0039062
        k(   36) = (  -0.0362803  -0.6520187   0.2304115), wk =   0.0039062
        k(   37) = (  -0.0552962  -0.6236160  -0.3016677), wk =   0.0039062
        k(   38) = (  -0.0525797  -0.6276735  -0.2256564), wk =   0.0039062
        k(   39) = (  -0.0498631  -0.6317310  -0.1496451), wk =   0.0039062
        k(   40) = (  -0.0471465  -0.6357886  -0.0736337), wk =   0.0039062
        k(   41) = (  -0.0333225  -0.4798846   0.0017832), wk =   0.0039062
        k(   42) = (  -0.0306059  -0.4839421   0.0777945), wk =   0.0039062
        k(   43) = (  -0.0278893  -0.4879996   0.1538058), wk =   0.0039062
        k(   44) = (  -0.0251728  -0.4920571   0.2298171), wk =   0.0039062
        k(   45) = (  -0.0441887  -0.4636545  -0.3022621), wk =   0.0039062
        k(   46) = (  -0.0414722  -0.4677120  -0.2262508), wk =   0.0039062
        k(   47) = (  -0.0387556  -0.4717695  -0.1502395), wk =   0.0039062
        k(   48) = (  -0.0360390  -0.4758270  -0.0742281), wk =   0.0039062
        k(   49) = (  -0.0222150  -0.3199230   0.0011888), wk =   0.0039062
        k(   50) = (  -0.0194984  -0.3239806   0.0772001), wk =   0.0039062
        k(   51) = (  -0.0167818  -0.3280381   0.1532114), wk =   0.0039062
        k(   52) = (  -0.0140653  -0.3320956   0.2292227), wk =   0.0039062
        k(   53) = (  -0.0330813  -0.3036930  -0.3028565), wk =   0.0039062
        k(   54) = (  -0.0303647  -0.3077505  -0.2268452), wk =   0.0039062
        k(   55) = (  -0.0276481  -0.3118080  -0.1508338), wk =   0.0039062
        k(   56) = (  -0.0249315  -0.3158655  -0.0748225), wk =   0.0039062
        k(   57) = (  -0.0111075  -0.1599615   0.0005944), wk =   0.0039062
        k(   58) = (  -0.0083909  -0.1640190   0.0766057), wk =   0.0039062
        k(   59) = (  -0.0056744  -0.1680766   0.1526170), wk =   0.0039062
        k(   60) = (  -0.0029578  -0.1721341   0.2286283), wk =   0.0039062
        k(   61) = (  -0.0219738  -0.1437314  -0.3034509), wk =   0.0039062
        k(   62) = (  -0.0192572  -0.1477890  -0.2274396), wk =   0.0039062
        k(   63) = (  -0.0165406  -0.1518465  -0.1514282), wk =   0.0039062
        k(   64) = (  -0.0138241  -0.1559040  -0.0754169), wk =   0.0039062
        k(   65) = (   0.1303112   0.0703139   0.0004840), wk =   0.0039062
        k(   66) = (   0.1330277   0.0662564   0.0764953), wk =   0.0039062
        k(   67) = (   0.1357443   0.0621988   0.1525066), wk =   0.0039062
        k(   68) = (   0.1384609   0.0581413   0.2285179), wk =   0.0039062
        k(   69) = (   0.1194449   0.0865440  -0.3035613), wk =   0.0039062
        k(   70) = (   0.1221615   0.0824864  -0.2275500), wk =   0.0039062
        k(   71) = (   0.1248780   0.0784289  -0.1515386), wk =   0.0039062
        k(   72) = (   0.1275946   0.0743714  -0.0755273), wk =   0.0039062
        k(   73) = (   0.1414187   0.2302754  -0.0001104), wk =   0.0039062
        k(   74) = (   0.1441352   0.2262179   0.0759009), wk =   0.0039062
        k(   75) = (   0.1468518   0.2221604   0.1519122), wk =   0.0039062
        k(   76) = (   0.1495684   0.2181028   0.2279235), wk =   0.0039062
        k(   77) = (   0.1305524   0.2465055  -0.3041557), wk =   0.0039062
        k(   78) = (   0.1332690   0.2424480  -0.2281444), wk =   0.0039062
        k(   79) = (   0.1359855   0.2383904  -0.1521330), wk =   0.0039062
        k(   80) = (   0.1387021   0.2343329  -0.0761217), wk =   0.0039062
        k(   81) = (   0.1525262   0.3902369  -0.0007048), wk =   0.0039062
        k(   82) = (   0.1552427   0.3861794   0.0753065), wk =   0.0039062
        k(   83) = (   0.1579593   0.3821219   0.1513178), wk =   0.0039062
        k(   84) = (   0.1606759   0.3780644   0.2273291), wk =   0.0039062
        k(   85) = (   0.1416599   0.4064670  -0.3047501), wk =   0.0039062
        k(   86) = (   0.1443764   0.4024095  -0.2287387), wk =   0.0039062
        k(   87) = (   0.1470930   0.3983520  -0.1527274), wk =   0.0039062
        k(   88) = (   0.1498096   0.3942944  -0.0767161), wk =   0.0039062
        k(   89) = (   0.1636336   0.5501984  -0.0012992), wk =   0.0039062
        k(   90) = (   0.1663502   0.5461409   0.0747121), wk =   0.0039062
        k(   91) = (   0.1690668   0.5420834   0.1507234), wk =   0.0039062
        k(   92) = (   0.1717833   0.5380259   0.2267348), wk =   0.0039062
        k(   93) = (   0.1527674   0.5664285  -0.3053444), wk =   0.0039062
        k(   94) = (   0.1554839   0.5623710  -0.2293331), wk =   0.0039062
        k(   95) = (   0.1582005   0.5583135  -0.1533218), wk =   0.0039062
        k(   96) = (   0.1609171   0.5542560  -0.0773105), wk =   0.0039062
        k(   97) = (   0.0858812  -0.5695322   0.0028615), wk =   0.0039062
        k(   98) = (   0.0885978  -0.5735897   0.0788729), wk =   0.0039062
        k(   99) = (   0.0913143  -0.5776473   0.1548842), wk =   0.0039062
        k(  100) = (   0.0940309  -0.5817048   0.2308955), wk =   0.0039062
        k(  101) = (   0.0750149  -0.5533021  -0.3011837), wk =   0.0039062
        k(  102) = (   0.0777315  -0.5573596  -0.2251724), wk =   0.0039062
        k(  103) = (   0.0804481  -0.5614172  -0.1491611), wk =   0.0039062
        k(  104) = (   0.0831646  -0.5654747  -0.0731498), wk =   0.0039062
        k(  105) = (   0.0969887  -0.4095707   0.0022672), wk =   0.0039062
        k(  106) = (   0.0997053  -0.4136282   0.0782785), wk =   0.0039062
        k(  107) = (   0.1024218  -0.4176857   0.1542898), wk =   0.0039062
        k(  108) = (   0.1051384  -0.4217433   0.2303011), wk =   0.0039062
        k(  109) = (   0.0861224  -0.3933406  -0.3017781), wk =   0.0039062
        k(  110) = (   0.0888390  -0.3973981  -0.2257668), wk =   0.0039062
        k(  111) = (   0.0915556  -0.4014556  -0.1497555), wk =   0.0039062
        k(  112) = (   0.0942721  -0.4055132  -0.0737442), wk =   0.0039062
        k(  113) = (   0.1080962  -0.2496092   0.0016728), wk =   0.0039062
        k(  114) = (   0.1108128  -0.2536667   0.0776841), wk =   0.0039062
        k(  115) = (   0.1135293  -0.2577242   0.1536954), wk =   0.0039062
        k(  116) = (   0.1162459  -0.2617817   0.2297067), wk =   0.0039062
        k(  117) = (   0.0972299  -0.2333791  -0.3023725), wk =   0.0039062
        k(  118) = (   0.0999465  -0.2374366  -0.2263612), wk =   0.0039062
        k(  119) = (   0.1026631  -0.2414941  -0.1503499), wk =   0.0039062
        k(  120) = (   0.1053796  -0.2455516  -0.0743385), wk =   0.0039062
        k(  121) = (   0.1192037  -0.0896476   0.0010784), wk =   0.0039062
        k(  122) = (   0.1219203  -0.0937052   0.0770897), wk =   0.0039062
        k(  123) = (   0.1246368  -0.0977627   0.1531010), wk =   0.0039062
        k(  124) = (   0.1273534  -0.1018202   0.2291123), wk =   0.0039062
        k(  125) = (   0.1083374  -0.0734176  -0.3029669), wk =   0.0039062
        k(  126) = (   0.1110540  -0.0774751  -0.2269556), wk =   0.0039062
        k(  127) = (   0.1137705  -0.0815326  -0.1509443), wk =   0.0039062
        k(  128) = (   0.1164871  -0.0855901  -0.0749329), wk =   0.0039062
        k(  129) = (   0.2606223   0.1406277   0.0009680), wk =   0.0039062
        k(  130) = (   0.2633389   0.1365702   0.0769793), wk =   0.0039062
        k(  131) = (   0.2660555   0.1325127   0.1529906), wk =   0.0039062
        k(  132) = (   0.2687720   0.1284552   0.2290019), wk =   0.0039062
        k(  133) = (   0.2497561   0.1568578  -0.3030773), wk =   0.0039062
        k(  134) = (   0.2524726   0.1528003  -0.2270660), wk =   0.0039062
        k(  135) = (   0.2551892   0.1487428  -0.1510547), wk =   0.0039062
        k(  136) = (   0.2579058   0.1446853  -0.0750433), wk =   0.0039062
        k(  137) = (   0.2717298   0.3005893   0.0003736), wk =   0.0039062
        k(  138) = (   0.2744464   0.2965317   0.0763849), wk =   0.0039062
        k(  139) = (   0.2771630   0.2924742   0.1523962), wk =   0.0039062
        k(  140) = (   0.2798795   0.2884167   0.2284075), wk =   0.0039062
        k(  141) = (   0.2608636   0.3168194  -0.3036717), wk =   0.0039062
        k(  142) = (   0.2635801   0.3127618  -0.2276604), wk =   0.0039062
        k(  143) = (   0.2662967   0.3087043  -0.1516491), wk =   0.0039062
        k(  144) = (   0.2690133   0.3046468  -0.0756377), wk =   0.0039062
        k(  145) = (   0.2828373   0.4605508  -0.0002208), wk =   0.0039062
        k(  146) = (   0.2855539   0.4564933   0.0757905), wk =   0.0039062
        k(  147) = (   0.2882705   0.4524357   0.1518018), wk =   0.0039062
        k(  148) = (   0.2909870   0.4483782   0.2278131), wk =   0.0039062
        k(  149) = (   0.2719711   0.4767809  -0.3042661), wk =   0.0039062
        k(  150) = (   0.2746876   0.4727234  -0.2282548), wk =   0.0039062
        k(  151) = (   0.2774042   0.4686658  -0.1522434), wk =   0.0039062
        k(  152) = (   0.2801208   0.4646083  -0.0762321), wk =   0.0039062
        k(  153) = (   0.2939448   0.6205123  -0.0008152), wk =   0.0039062
        k(  154) = (   0.2966614   0.6164548   0.0751961), wk =   0.0039062
        k(  155) = (   0.2993780   0.6123973   0.1512074), wk =   0.0039062
        k(  156) = (   0.3020945   0.6083398   0.2272187), wk =   0.0039062
        k(  157) = (   0.2830785   0.6367424  -0.3048605), wk =   0.0039062
        k(  158) = (   0.2857951   0.6326849  -0.2288492), wk =   0.0039062
        k(  159) = (   0.2885117   0.6286274  -0.1528378), wk =   0.0039062
        k(  160) = (   0.2912282   0.6245698  -0.0768265), wk =   0.0039062
        k(  161) = (   0.2161924  -0.4992183   0.0033455), wk =   0.0039062
        k(  162) = (   0.2189090  -0.5032759   0.0793568), wk =   0.0039062
        k(  163) = (   0.2216255  -0.5073334   0.1553682), wk =   0.0039062
        k(  164) = (   0.2243421  -0.5113909   0.2313795), wk =   0.0039062
        k(  165) = (   0.2053261  -0.4829883  -0.3006997), wk =   0.0039062
        k(  166) = (   0.2080427  -0.4870458  -0.2246884), wk =   0.0039062
        k(  167) = (   0.2107593  -0.4911033  -0.1486771), wk =   0.0039062
        k(  168) = (   0.2134758  -0.4951608  -0.0726658), wk =   0.0039062
        k(  169) = (   0.2272999  -0.3392568   0.0027511), wk =   0.0039062
        k(  170) = (   0.2300164  -0.3433143   0.0787625), wk =   0.0039062
        k(  171) = (   0.2327330  -0.3473719   0.1547738), wk =   0.0039062
        k(  172) = (   0.2354496  -0.3514294   0.2307851), wk =   0.0039062
        k(  173) = (   0.2164336  -0.3230267  -0.3012941), wk =   0.0039062
        k(  174) = (   0.2191502  -0.3270843  -0.2252828), wk =   0.0039062
        k(  175) = (   0.2218667  -0.3311418  -0.1492715), wk =   0.0039062
        k(  176) = (   0.2245833  -0.3351993  -0.0732602), wk =   0.0039062
        k(  177) = (   0.2384074  -0.1792953   0.0021567), wk =   0.0039062
        k(  178) = (   0.2411239  -0.1833528   0.0781681), wk =   0.0039062
        k(  179) = (   0.2438405  -0.1874103   0.1541794), wk =   0.0039062
        k(  180) = (   0.2465571  -0.1914679   0.2301907), wk =   0.0039062
        k(  181) = (   0.2275411  -0.1630652  -0.3018885), wk =   0.0039062
        k(  182) = (   0.2302577  -0.1671227  -0.2258772), wk =   0.0039062
        k(  183) = (   0.2329742  -0.1711803  -0.1498659), wk =   0.0039062
        k(  184) = (   0.2356908  -0.1752378  -0.0738546), wk =   0.0039062
        k(  185) = (   0.2495149  -0.0193338   0.0015624), wk =   0.0039062
        k(  186) = (   0.2522314  -0.0233913   0.0775737), wk =   0.0039062
        k(  187) = (   0.2549480  -0.0274488   0.1535850), wk =   0.0039062
        k(  188) = (   0.2576646  -0.0315063   0.2295963), wk =   0.0039062
        k(  189) = (   0.2386486  -0.0031037  -0.3024829), wk =   0.0039062
        k(  190) = (   0.2413652  -0.0071612  -0.2264716), wk =   0.0039062
        k(  191) = (   0.2440817  -0.0112187  -0.1504603), wk =   0.0039062
        k(  192) = (   0.2467983  -0.0152763  -0.0744490), wk =   0.0039062
        k(  193) = (   0.3909335   0.2109416   0.0014519), wk =   0.0039062
        k(  194) = (   0.3936501   0.2068841   0.0774633), wk =   0.0039062
        k(  195) = (   0.3963667   0.2028266   0.1534746), wk =   0.0039062
        k(  196) = (   0.3990832   0.1987691   0.2294859), wk =   0.0039062
        k(  197) = (   0.3800672   0.2271717  -0.3025933), wk =   0.0039062
        k(  198) = (   0.3827838   0.2231142  -0.2265820), wk =   0.0039062
        k(  199) = (   0.3855004   0.2190567  -0.1505707), wk =   0.0039062
        k(  200) = (   0.3882170   0.2149991  -0.0745594), wk =   0.0039062
        k(  201) = (   0.4020410   0.3709031   0.0008576), wk =   0.0039062
        k(  202) = (   0.4047576   0.3668456   0.0768689), wk =   0.0039062
        k(  203) = (   0.4074741   0.3627881   0.1528802), wk =   0.0039062
        k(  204) = (   0.4101907   0.3587306   0.2288915), wk =   0.0039062
        k(  205) = (   0.3911747   0.3871332  -0.3031877), wk =   0.0039062
        k(  206) = (   0.3938913   0.3830757  -0.2271764), wk =   0.0039062
        k(  207) = (   0.3966079   0.3790182  -0.1511651), wk =   0.0039062
        k(  208) = (   0.3993244   0.3749607  -0.0751538), wk =   0.0039062
        k(  209) = (   0.4131485   0.5308647   0.0002632), wk =   0.0039062
        k(  210) = (   0.4158651   0.5268071   0.0762745), wk =   0.0039062
        k(  211) = (   0.4185816   0.5227496   0.1522858), wk =   0.0039062
        k(  212) = (   0.4212982   0.5186921   0.2282971), wk =   0.0039062
        k(  213) = (   0.4022822   0.5470948  -0.3037821), wk =   0.0039062
        k(  214) = (   0.4049988   0.5430372  -0.2277708), wk =   0.0039062
        k(  215) = (   0.4077154   0.5389797  -0.1517595), wk =   0.0039062
        k(  216) = (   0.4104319   0.5349222  -0.0757481), wk =   0.0039062
        k(  217) = (   0.4242560   0.6908262  -0.0003312), wk =   0.0039062
        k(  218) = (   0.4269726   0.6867687   0.0756801), wk =   0.0039062
        k(  219) = (   0.4296891   0.6827111   0.1516914), wk =   0.0039062
        k(  220) = (   0.4324057   0.6786536   0.2277027), wk =   0.0039062
        k(  221) = (   0.4133897   0.7070563  -0.3043765), wk =   0.0039062
        k(  222) = (   0.4161063   0.7029988  -0.2283652), wk =   0.0039062
        k(  223) = (   0.4188229   0.6989412  -0.1523539), wk =   0.0039062
        k(  224) = (   0.4215394   0.6948837  -0.0763425), wk =   0.0039062
        k(  225) = (   0.3465036  -0.4289045   0.0038295), wk =   0.0039062
        k(  226) = (   0.3492201  -0.4329620   0.0798408), wk =   0.0039062
        k(  227) = (   0.3519367  -0.4370195   0.1558521), wk =   0.0039062
        k(  228) = (   0.3546533  -0.4410770   0.2318635), wk =   0.0039062
        k(  229) = (   0.3356373  -0.4126744  -0.3002157), wk =   0.0039062
        k(  230) = (   0.3383539  -0.4167319  -0.2242044), wk =   0.0039062
        k(  231) = (   0.3410704  -0.4207894  -0.1481931), wk =   0.0039062
        k(  232) = (   0.3437870  -0.4248469  -0.0721818), wk =   0.0039062
        k(  233) = (   0.3576110  -0.2689429   0.0032351), wk =   0.0039062
        k(  234) = (   0.3603276  -0.2730005   0.0792464), wk =   0.0039062
        k(  235) = (   0.3630442  -0.2770580   0.1552578), wk =   0.0039062
        k(  236) = (   0.3657608  -0.2811155   0.2312691), wk =   0.0039062
        k(  237) = (   0.3467448  -0.2527129  -0.3008101), wk =   0.0039062
        k(  238) = (   0.3494613  -0.2567704  -0.2247988), wk =   0.0039062
        k(  239) = (   0.3521779  -0.2608279  -0.1487875), wk =   0.0039062
        k(  240) = (   0.3548945  -0.2648854  -0.0727762), wk =   0.0039062
        k(  241) = (   0.3687185  -0.1089814   0.0026407), wk =   0.0039062
        k(  242) = (   0.3714351  -0.1130389   0.0786520), wk =   0.0039062
        k(  243) = (   0.3741517  -0.1170965   0.1546634), wk =   0.0039062
        k(  244) = (   0.3768682  -0.1211540   0.2306747), wk =   0.0039062
        k(  245) = (   0.3578523  -0.0927513  -0.3014045), wk =   0.0039062
        k(  246) = (   0.3605688  -0.0968089  -0.2253932), wk =   0.0039062
        k(  247) = (   0.3632854  -0.1008664  -0.1493819), wk =   0.0039062
        k(  248) = (   0.3660020  -0.1049239  -0.0733706), wk =   0.0039062
        k(  249) = (   0.3798260   0.0509801   0.0020463), wk =   0.0039062
        k(  250) = (   0.3825426   0.0469226   0.0780577), wk =   0.0039062
        k(  251) = (   0.3852592   0.0428651   0.1540690), wk =   0.0039062
        k(  252) = (   0.3879757   0.0388075   0.2300803), wk =   0.0039062
        k(  253) = (   0.3689598   0.0672102  -0.3019989), wk =   0.0039062
        k(  254) = (   0.3716763   0.0631527  -0.2259876), wk =   0.0039062
        k(  255) = (   0.3743929   0.0590951  -0.1499763), wk =   0.0039062
        k(  256) = (   0.3771095   0.0550376  -0.0739650), wk =   0.0039062
        k(  257) = (  -0.5212447  -0.2812555  -0.0019359), wk =   0.0039062
        k(  258) = (  -0.5185281  -0.2853130   0.0740754), wk =   0.0039062
        k(  259) = (  -0.5158116  -0.2893705   0.1500867), wk =   0.0039062
        k(  260) = (  -0.5130950  -0.2934281   0.2260980), wk =   0.0039062
        k(  261) = (  -0.5321110  -0.2650254  -0.3059812), wk =   0.0039062
        k(  262) = (  -0.5293944  -0.2690829  -0.2299699), wk =   0.0039062
        k(  263) = (  -0.5266778  -0.2731405  -0.1539586), wk =   0.0039062
        k(  264) = (  -0.5239613  -0.2771980  -0.0779472), wk =   0.0039062
        k(  265) = (  -0.5101372  -0.1212940  -0.0025303), wk =   0.0039062
        k(  266) = (  -0.5074206  -0.1253515   0.0734810), wk =   0.0039062
        k(  267) = (  -0.5047041  -0.1294090   0.1494923), wk =   0.0039062
        k(  268) = (  -0.5019875  -0.1334665   0.2255036), wk =   0.0039062
        k(  269) = (  -0.5210035  -0.1050639  -0.3065756), wk =   0.0039062
        k(  270) = (  -0.5182869  -0.1091214  -0.2305643), wk =   0.0039062
        k(  271) = (  -0.5155703  -0.1131789  -0.1545530), wk =   0.0039062
        k(  272) = (  -0.5128538  -0.1172365  -0.0785416), wk =   0.0039062
        k(  273) = (  -0.4990297   0.0386675  -0.0031247), wk =   0.0039062
        k(  274) = (  -0.4963131   0.0346100   0.0728866), wk =   0.0039062
        k(  275) = (  -0.4935966   0.0305525   0.1488979), wk =   0.0039062
        k(  276) = (  -0.4908800   0.0264950   0.2249092), wk =   0.0039062
        k(  277) = (  -0.5098960   0.0548976  -0.3071700), wk =   0.0039062
        k(  278) = (  -0.5071794   0.0508401  -0.2311587), wk =   0.0039062
        k(  279) = (  -0.5044628   0.0467826  -0.1551473), wk =   0.0039062
        k(  280) = (  -0.5017463   0.0427251  -0.0791360), wk =   0.0039062
        k(  281) = (  -0.4879222   0.1986291  -0.0037191), wk =   0.0039062
        k(  282) = (  -0.4852057   0.1945715   0.0722922), wk =   0.0039062
        k(  283) = (  -0.4824891   0.1905140   0.1483035), wk =   0.0039062
        k(  284) = (  -0.4797725   0.1864565   0.2243148), wk =   0.0039062
        k(  285) = (  -0.4987885   0.2148592  -0.3077644), wk =   0.0039062
        k(  286) = (  -0.4960719   0.2108016  -0.2317530), wk =   0.0039062
        k(  287) = (  -0.4933554   0.2067441  -0.1557417), wk =   0.0039062
        k(  288) = (  -0.4906388   0.2026866  -0.0797304), wk =   0.0039062
        k(  289) = (  -0.5656746  -0.9211016   0.0004416), wk =   0.0039062
        k(  290) = (  -0.5629581  -0.9251591   0.0764529), wk =   0.0039062
        k(  291) = (  -0.5602415  -0.9292166   0.1524643), wk =   0.0039062
        k(  292) = (  -0.5575249  -0.9332742   0.2284756), wk =   0.0039062
        k(  293) = (  -0.5765409  -0.9048715  -0.3036036), wk =   0.0039062
        k(  294) = (  -0.5738244  -0.9089290  -0.2275923), wk =   0.0039062
        k(  295) = (  -0.5711078  -0.9129865  -0.1515810), wk =   0.0039062
        k(  296) = (  -0.5683912  -0.9170441  -0.0755697), wk =   0.0039062
        k(  297) = (  -0.5545672  -0.7611401  -0.0001528), wk =   0.0039062
        k(  298) = (  -0.5518506  -0.7651976   0.0758586), wk =   0.0039062
        k(  299) = (  -0.5491340  -0.7692551   0.1518699), wk =   0.0039062
        k(  300) = (  -0.5464175  -0.7733126   0.2278812), wk =   0.0039062
        k(  301) = (  -0.5654334  -0.7449100  -0.3041980), wk =   0.0039062
        k(  302) = (  -0.5627169  -0.7489675  -0.2281867), wk =   0.0039062
        k(  303) = (  -0.5600003  -0.7530250  -0.1521754), wk =   0.0039062
        k(  304) = (  -0.5572837  -0.7570825  -0.0761641), wk =   0.0039062
        k(  305) = (  -0.5434597  -0.6011785  -0.0007471), wk =   0.0039062
        k(  306) = (  -0.5407431  -0.6052361   0.0752642), wk =   0.0039062
        k(  307) = (  -0.5380265  -0.6092936   0.1512755), wk =   0.0039062
        k(  308) = (  -0.5353100  -0.6133511   0.2272868), wk =   0.0039062
        k(  309) = (  -0.5543259  -0.5849485  -0.3047924), wk =   0.0039062
        k(  310) = (  -0.5516094  -0.5890060  -0.2287811), wk =   0.0039062
        k(  311) = (  -0.5488928  -0.5930635  -0.1527698), wk =   0.0039062
        k(  312) = (  -0.5461762  -0.5971210  -0.0767585), wk =   0.0039062
        k(  313) = (  -0.5323522  -0.4412170  -0.0013415), wk =   0.0039062
        k(  314) = (  -0.5296356  -0.4452745   0.0746698), wk =   0.0039062
        k(  315) = (  -0.5269190  -0.4493321   0.1506811), wk =   0.0039062
        k(  316) = (  -0.5242025  -0.4533896   0.2266924), wk =   0.0039062
        k(  317) = (  -0.5432185  -0.4249869  -0.3053868), wk =   0.0039062
        k(  318) = (  -0.5405019  -0.4290445  -0.2293755), wk =   0.0039062
        k(  319) = (  -0.5377853  -0.4331020  -0.1533642), wk =   0.0039062
        k(  320) = (  -0.5350687  -0.4371595  -0.0773529), wk =   0.0039062
        k(  321) = (  -0.3909335  -0.2109416  -0.0014519), wk =   0.0039062
        k(  322) = (  -0.3882170  -0.2149991   0.0745594), wk =   0.0039062
        k(  323) = (  -0.3855004  -0.2190567   0.1505707), wk =   0.0039062
        k(  324) = (  -0.3827838  -0.2231142   0.2265820), wk =   0.0039062
        k(  325) = (  -0.4017998  -0.1947115  -0.3054972), wk =   0.0039062
        k(  326) = (  -0.3990832  -0.1987691  -0.2294859), wk =   0.0039062
        k(  327) = (  -0.3963667  -0.2028266  -0.1534746), wk =   0.0039062
        k(  328) = (  -0.3936501  -0.2068841  -0.0774633), wk =   0.0039062
        k(  329) = (  -0.3798260  -0.0509801  -0.0020463), wk =   0.0039062
        k(  330) = (  -0.3771095  -0.0550376   0.0739650), wk =   0.0039062
        k(  331) = (  -0.3743929  -0.0590951   0.1499763), wk =   0.0039062
        k(  332) = (  -0.3716763  -0.0631527   0.2259876), wk =   0.0039062
        k(  333) = (  -0.3906923  -0.0347500  -0.3060916), wk =   0.0039062
        k(  334) = (  -0.3879757  -0.0388075  -0.2300803), wk =   0.0039062
        k(  335) = (  -0.3852592  -0.0428651  -0.1540690), wk =   0.0039062
        k(  336) = (  -0.3825426  -0.0469226  -0.0780577), wk =   0.0039062
        k(  337) = (  -0.3687185   0.1089814  -0.0026407), wk =   0.0039062
        k(  338) = (  -0.3660020   0.1049239   0.0733706), wk =   0.0039062
        k(  339) = (  -0.3632854   0.1008664   0.1493819), wk =   0.0039062
        k(  340) = (  -0.3605688   0.0968089   0.2253932), wk =   0.0039062
        k(  341) = (  -0.3795848   0.1252115  -0.3066860), wk =   0.0039062
        k(  342) = (  -0.3768682   0.1211540  -0.2306747), wk =   0.0039062
        k(  343) = (  -0.3741517   0.1170965  -0.1546634), wk =   0.0039062
        k(  344) = (  -0.3714351   0.1130389  -0.0786520), wk =   0.0039062
        k(  345) = (  -0.3576110   0.2689429  -0.0032351), wk =   0.0039062
        k(  346) = (  -0.3548945   0.2648854   0.0727762), wk =   0.0039062
        k(  347) = (  -0.3521779   0.2608279   0.1487875), wk =   0.0039062
        k(  348) = (  -0.3494613   0.2567704   0.2247988), wk =   0.0039062
        k(  349) = (  -0.3684773   0.2851730  -0.3072804), wk =   0.0039062
        k(  350) = (  -0.3657608   0.2811155  -0.2312691), wk =   0.0039062
        k(  351) = (  -0.3630442   0.2770580  -0.1552578), wk =   0.0039062
        k(  352) = (  -0.3603276   0.2730005  -0.0792464), wk =   0.0039062
        k(  353) = (  -0.4353635  -0.8507877   0.0009256), wk =   0.0039062
        k(  354) = (  -0.4326469  -0.8548452   0.0769369), wk =   0.0039062
        k(  355) = (  -0.4299303  -0.8589028   0.1529482), wk =   0.0039062
        k(  356) = (  -0.4272138  -0.8629603   0.2289596), wk =   0.0039062
        k(  357) = (  -0.4462297  -0.8345576  -0.3031196), wk =   0.0039062
        k(  358) = (  -0.4435132  -0.8386151  -0.2271083), wk =   0.0039062
        k(  359) = (  -0.4407966  -0.8426727  -0.1510970), wk =   0.0039062
        k(  360) = (  -0.4380800  -0.8467302  -0.0750857), wk =   0.0039062
        k(  361) = (  -0.4242560  -0.6908262   0.0003312), wk =   0.0039062
        k(  362) = (  -0.4215394  -0.6948837   0.0763425), wk =   0.0039062
        k(  363) = (  -0.4188229  -0.6989412   0.1523539), wk =   0.0039062
        k(  364) = (  -0.4161063  -0.7029988   0.2283652), wk =   0.0039062
        k(  365) = (  -0.4351223  -0.6745961  -0.3037140), wk =   0.0039062
        k(  366) = (  -0.4324057  -0.6786536  -0.2277027), wk =   0.0039062
        k(  367) = (  -0.4296891  -0.6827111  -0.1516914), wk =   0.0039062
        k(  368) = (  -0.4269726  -0.6867687  -0.0756801), wk =   0.0039062
        k(  369) = (  -0.4131485  -0.5308647  -0.0002632), wk =   0.0039062
        k(  370) = (  -0.4104319  -0.5349222   0.0757481), wk =   0.0039062
        k(  371) = (  -0.4077154  -0.5389797   0.1517595), wk =   0.0039062
        k(  372) = (  -0.4049988  -0.5430372   0.2277708), wk =   0.0039062
        k(  373) = (  -0.4240148  -0.5146346  -0.3043084), wk =   0.0039062
        k(  374) = (  -0.4212982  -0.5186921  -0.2282971), wk =   0.0039062
        k(  375) = (  -0.4185816  -0.5227496  -0.1522858), wk =   0.0039062
        k(  376) = (  -0.4158651  -0.5268071  -0.0762745), wk =   0.0039062
        k(  377) = (  -0.4020410  -0.3709031  -0.0008576), wk =   0.0039062
        k(  378) = (  -0.3993244  -0.3749607   0.0751538), wk =   0.0039062
        k(  379) = (  -0.3966079  -0.3790182   0.1511651), wk =   0.0039062
        k(  380) = (  -0.3938913  -0.3830757   0.2271764), wk =   0.0039062
        k(  381) = (  -0.4129073  -0.3546731  -0.3049028), wk =   0.0039062
        k(  382) = (  -0.4101907  -0.3587306  -0.2288915), wk =   0.0039062
        k(  383) = (  -0.4074741  -0.3627881  -0.1528802), wk =   0.0039062
        k(  384) = (  -0.4047576  -0.3668456  -0.0768689), wk =   0.0039062
        k(  385) = (  -0.2606223  -0.1406277  -0.0009680), wk =   0.0039062
        k(  386) = (  -0.2579058  -0.1446853   0.0750433), wk =   0.0039062
        k(  387) = (  -0.2551892  -0.1487428   0.1510547), wk =   0.0039062
        k(  388) = (  -0.2524726  -0.1528003   0.2270660), wk =   0.0039062
        k(  389) = (  -0.2714886  -0.1243977  -0.3050132), wk =   0.0039062
        k(  390) = (  -0.2687720  -0.1284552  -0.2290019), wk =   0.0039062
        k(  391) = (  -0.2660555  -0.1325127  -0.1529906), wk =   0.0039062
        k(  392) = (  -0.2633389  -0.1365702  -0.0769793), wk =   0.0039062
        k(  393) = (  -0.2495149   0.0193338  -0.0015624), wk =   0.0039062
        k(  394) = (  -0.2467983   0.0152763   0.0744490), wk =   0.0039062
        k(  395) = (  -0.2440817   0.0112187   0.1504603), wk =   0.0039062
        k(  396) = (  -0.2413652   0.0071612   0.2264716), wk =   0.0039062
        k(  397) = (  -0.2603811   0.0355639  -0.3056076), wk =   0.0039062
        k(  398) = (  -0.2576646   0.0315063  -0.2295963), wk =   0.0039062
        k(  399) = (  -0.2549480   0.0274488  -0.1535850), wk =   0.0039062
        k(  400) = (  -0.2522314   0.0233913  -0.0775737), wk =   0.0039062
        k(  401) = (  -0.2384074   0.1792953  -0.0021567), wk =   0.0039062
        k(  402) = (  -0.2356908   0.1752378   0.0738546), wk =   0.0039062
        k(  403) = (  -0.2329742   0.1711803   0.1498659), wk =   0.0039062
        k(  404) = (  -0.2302577   0.1671227   0.2258772), wk =   0.0039062
        k(  405) = (  -0.2492736   0.1955254  -0.3062020), wk =   0.0039062
        k(  406) = (  -0.2465571   0.1914679  -0.2301907), wk =   0.0039062
        k(  407) = (  -0.2438405   0.1874103  -0.1541794), wk =   0.0039062
        k(  408) = (  -0.2411239   0.1833528  -0.0781681), wk =   0.0039062
        k(  409) = (  -0.2272999   0.3392568  -0.0027511), wk =   0.0039062
        k(  410) = (  -0.2245833   0.3351993   0.0732602), wk =   0.0039062
        k(  411) = (  -0.2218667   0.3311418   0.1492715), wk =   0.0039062
        k(  412) = (  -0.2191502   0.3270843   0.2252828), wk =   0.0039062
        k(  413) = (  -0.2381661   0.3554869  -0.3067964), wk =   0.0039062
        k(  414) = (  -0.2354496   0.3514294  -0.2307851), wk =   0.0039062
        k(  415) = (  -0.2327330   0.3473719  -0.1547738), wk =   0.0039062
        k(  416) = (  -0.2300164   0.3433143  -0.0787625), wk =   0.0039062
        k(  417) = (  -0.3050523  -0.7804738   0.0014096), wk =   0.0039062
        k(  418) = (  -0.3023357  -0.7845314   0.0774209), wk =   0.0039062
        k(  419) = (  -0.2996192  -0.7885889   0.1534322), wk =   0.0039062
        k(  420) = (  -0.2969026  -0.7926464   0.2294435), wk =   0.0039062
        k(  421) = (  -0.3159186  -0.7642438  -0.3026357), wk =   0.0039062
        k(  422) = (  -0.3132020  -0.7683013  -0.2266243), wk =   0.0039062
        k(  423) = (  -0.3104854  -0.7723588  -0.1506130), wk =   0.0039062
        k(  424) = (  -0.3077689  -0.7764163  -0.0746017), wk =   0.0039062
        k(  425) = (  -0.2939448  -0.6205123   0.0008152), wk =   0.0039062
        k(  426) = (  -0.2912282  -0.6245698   0.0768265), wk =   0.0039062
        k(  427) = (  -0.2885117  -0.6286274   0.1528378), wk =   0.0039062
        k(  428) = (  -0.2857951  -0.6326849   0.2288492), wk =   0.0039062
        k(  429) = (  -0.3048111  -0.6042822  -0.3032300), wk =   0.0039062
        k(  430) = (  -0.3020945  -0.6083398  -0.2272187), wk =   0.0039062
        k(  431) = (  -0.2993780  -0.6123973  -0.1512074), wk =   0.0039062
        k(  432) = (  -0.2966614  -0.6164548  -0.0751961), wk =   0.0039062
        k(  433) = (  -0.2828373  -0.4605508   0.0002208), wk =   0.0039062
        k(  434) = (  -0.2801208  -0.4646083   0.0762321), wk =   0.0039062
        k(  435) = (  -0.2774042  -0.4686658   0.1522434), wk =   0.0039062
        k(  436) = (  -0.2746876  -0.4727234   0.2282548), wk =   0.0039062
        k(  437) = (  -0.2937036  -0.4443207  -0.3038244), wk =   0.0039062
        k(  438) = (  -0.2909870  -0.4483782  -0.2278131), wk =   0.0039062
        k(  439) = (  -0.2882705  -0.4524357  -0.1518018), wk =   0.0039062
        k(  440) = (  -0.2855539  -0.4564933  -0.0757905), wk =   0.0039062
        k(  441) = (  -0.2717298  -0.3005893  -0.0003736), wk =   0.0039062
        k(  442) = (  -0.2690133  -0.3046468   0.0756377), wk =   0.0039062
        k(  443) = (  -0.2662967  -0.3087043   0.1516491), wk =   0.0039062
        k(  444) = (  -0.2635801  -0.3127618   0.2276604), wk =   0.0039062
        k(  445) = (  -0.2825961  -0.2843592  -0.3044188), wk =   0.0039062
        k(  446) = (  -0.2798795  -0.2884167  -0.2284075), wk =   0.0039062
        k(  447) = (  -0.2771630  -0.2924742  -0.1523962), wk =   0.0039062
        k(  448) = (  -0.2744464  -0.2965317  -0.0763849), wk =   0.0039062
        k(  449) = (  -0.1303112  -0.0703139  -0.0004840), wk =   0.0039062
        k(  450) = (  -0.1275946  -0.0743714   0.0755273), wk =   0.0039062
        k(  451) = (  -0.1248780  -0.0784289   0.1515386), wk =   0.0039062
        k(  452) = (  -0.1221615  -0.0824864   0.2275500), wk =   0.0039062
        k(  453) = (  -0.1411774  -0.0540838  -0.3045292), wk =   0.0039062
        k(  454) = (  -0.1384609  -0.0581413  -0.2285179), wk =   0.0039062
        k(  455) = (  -0.1357443  -0.0621988  -0.1525066), wk =   0.0039062
        k(  456) = (  -0.1330277  -0.0662564  -0.0764953), wk =   0.0039062
        k(  457) = (  -0.1192037   0.0896476  -0.0010784), wk =   0.0039062
        k(  458) = (  -0.1164871   0.0855901   0.0749329), wk =   0.0039062
        k(  459) = (  -0.1137705   0.0815326   0.1509443), wk =   0.0039062
        k(  460) = (  -0.1110540   0.0774751   0.2269556), wk =   0.0039062
        k(  461) = (  -0.1300700   0.1058777  -0.3051236), wk =   0.0039062
        k(  462) = (  -0.1273534   0.1018202  -0.2291123), wk =   0.0039062
        k(  463) = (  -0.1246368   0.0977627  -0.1531010), wk =   0.0039062
        k(  464) = (  -0.1219203   0.0937052  -0.0770897), wk =   0.0039062
        k(  465) = (  -0.1080962   0.2496092  -0.0016728), wk =   0.0039062
        k(  466) = (  -0.1053796   0.2455516   0.0743385), wk =   0.0039062
        k(  467) = (  -0.1026631   0.2414941   0.1503499), wk =   0.0039062
        k(  468) = (  -0.0999465   0.2374366   0.2263612), wk =   0.0039062
        k(  469) = (  -0.1189625   0.2658393  -0.3057180), wk =   0.0039062
        k(  470) = (  -0.1162459   0.2617817  -0.2297067), wk =   0.0039062
        k(  471) = (  -0.1135293   0.2577242  -0.1536954), wk =   0.0039062
        k(  472) = (  -0.1108128   0.2536667  -0.0776841), wk =   0.0039062
        k(  473) = (  -0.0969887   0.4095707  -0.0022672), wk =   0.0039062
        k(  474) = (  -0.0942721   0.4055132   0.0737442), wk =   0.0039062
        k(  475) = (  -0.0915556   0.4014556   0.1497555), wk =   0.0039062
        k(  476) = (  -0.0888390   0.3973981   0.2257668), wk =   0.0039062
        k(  477) = (  -0.1078550   0.4258008  -0.3063124), wk =   0.0039062
        k(  478) = (  -0.1051384   0.4217433  -0.2303011), wk =   0.0039062
        k(  479) = (  -0.1024218   0.4176857  -0.1542898), wk =   0.0039062
        k(  480) = (  -0.0997053   0.4136282  -0.0782785), wk =   0.0039062
        k(  481) = (  -0.1747411  -0.7101600   0.0018936), wk =   0.0039062
        k(  482) = (  -0.1720246  -0.7142175   0.0779049), wk =   0.0039062
        k(  483) = (  -0.1693080  -0.7182750   0.1539162), wk =   0.0039062
        k(  484) = (  -0.1665914  -0.7223325   0.2299275), wk =   0.0039062
        k(  485) = (  -0.1856074  -0.6939299  -0.3021517), wk =   0.0039062
        k(  486) = (  -0.1828908  -0.6979874  -0.2261404), wk =   0.0039062
        k(  487) = (  -0.1801743  -0.7020449  -0.1501290), wk =   0.0039062
        k(  488) = (  -0.1774577  -0.7061024  -0.0741177), wk =   0.0039062
        k(  489) = (  -0.1636336  -0.5501984   0.0012992), wk =   0.0039062
        k(  490) = (  -0.1609171  -0.5542560   0.0773105), wk =   0.0039062
        k(  491) = (  -0.1582005  -0.5583135   0.1533218), wk =   0.0039062
        k(  492) = (  -0.1554839  -0.5623710   0.2293331), wk =   0.0039062
        k(  493) = (  -0.1744999  -0.5339684  -0.3027461), wk =   0.0039062
        k(  494) = (  -0.1717833  -0.5380259  -0.2267348), wk =   0.0039062
        k(  495) = (  -0.1690668  -0.5420834  -0.1507234), wk =   0.0039062
        k(  496) = (  -0.1663502  -0.5461409  -0.0747121), wk =   0.0039062
        k(  497) = (  -0.1525262  -0.3902369   0.0007048), wk =   0.0039062
        k(  498) = (  -0.1498096  -0.3942944   0.0767161), wk =   0.0039062
        k(  499) = (  -0.1470930  -0.3983520   0.1527274), wk =   0.0039062
        k(  500) = (  -0.1443764  -0.4024095   0.2287387), wk =   0.0039062
        k(  501) = (  -0.1633924  -0.3740068  -0.3033405), wk =   0.0039062
        k(  502) = (  -0.1606759  -0.3780644  -0.2273291), wk =   0.0039062
        k(  503) = (  -0.1579593  -0.3821219  -0.1513178), wk =   0.0039062
        k(  504) = (  -0.1552427  -0.3861794  -0.0753065), wk =   0.0039062
        k(  505) = (  -0.1414187  -0.2302754   0.0001104), wk =   0.0039062
        k(  506) = (  -0.1387021  -0.2343329   0.0761217), wk =   0.0039062
        k(  507) = (  -0.1359855  -0.2383904   0.1521330), wk =   0.0039062
        k(  508) = (  -0.1332690  -0.2424480   0.2281444), wk =   0.0039062
        k(  509) = (  -0.1522849  -0.2140453  -0.3039348), wk =   0.0039062
        k(  510) = (  -0.1495684  -0.2181028  -0.2279235), wk =   0.0039062
        k(  511) = (  -0.1468518  -0.2221604  -0.1519122), wk =   0.0039062
        k(  512) = (  -0.1441352  -0.2262179  -0.0759009), wk =   0.0039062

                       cryst. coord.
        k(    1) = (   0.0000000   0.0000000   0.0000000), wk =   0.0039062
        k(    2) = (  -0.0000000   0.0000000   0.1250000), wk =   0.0039062
        k(    3) = (  -0.0000000   0.0000000   0.2500000), wk =   0.0039062
        k(    4) = (   0.0000000  -0.0000000   0.3750000), wk =   0.0039062
        k(    5) = (   0.0000000   0.0000000  -0.5000000), wk =   0.0039062
        k(    6) = (  -0.0000000   0.0000000  -0.3750000), wk =   0.0039062
        k(    7) = (   0.0000000   0.0000000  -0.2500000), wk =   0.0039062
        k(    8) = (   0.0000000   0.0000000  -0.1250000), wk =   0.0039062
        k(    9) = (   0.0000000   0.1250000  -0.0000000), wk =   0.0039062
        k(   10) = (  -0.0000000   0.1250000   0.1250000), wk =   0.0039062
        k(   11) = (   0.0000000   0.1250000   0.2500000), wk =   0.0039062
        k(   12) = (   0.0000000   0.1250000   0.3750000), wk =   0.0039062
        k(   13) = (   0.0000000   0.1250000  -0.5000000), wk =   0.0039062
        k(   14) = (   0.0000000   0.1250000  -0.3750000), wk =   0.0039062
        k(   15) = (   0.0000000   0.1250000  -0.2500000), wk =   0.0039062
        k(   16) = (   0.0000000   0.1250000  -0.1250000), wk =   0.0039062
        k(   17) = (   0.0000000   0.2500000  -0.0000000), wk =   0.0039062
        k(   18) = (   0.0000000   0.2500000   0.1250000), wk =   0.0039062
        k(   19) = (  -0.0000000   0.2500000   0.2500000), wk =   0.0039062
        k(   20) = (   0.0000000   0.2500000   0.3750000), wk =   0.0039062
        k(   21) = (   0.0000000   0.2500000  -0.5000000), wk =   0.0039062
        k(   22) = (   0.0000000   0.2500000  -0.3750000), wk =   0.0039062
        k(   23) = (   0.0000000   0.2500000  -0.2500000), wk =   0.0039062
        k(   24) = (   0.0000000   0.2500000  -0.1250000), wk =   0.0039062
        k(   25) = (  -0.0000000   0.3750000   0.0000000), wk =   0.0039062
        k(   26) = (  -0.0000000   0.3750000   0.1250000), wk =   0.0039062
        k(   27) = (  -0.0000000   0.3750000   0.2500000), wk =   0.0039062
        k(   28) = (   0.0000000   0.3750000   0.3750000), wk =   0.0039062
        k(   29) = (  -0.0000000   0.3750000  -0.5000000), wk =   0.0039062
        k(   30) = (  -0.0000000   0.3750000  -0.3750000), wk =   0.0039062
        k(   31) = (   0.0000000   0.3750000  -0.2500000), wk =   0.0039062
        k(   32) = (  -0.0000000   0.3750000  -0.1250000), wk =   0.0039062
        k(   33) = (  -0.0000000  -0.5000000   0.0000000), wk =   0.0039062
        k(   34) = (  -0.0000000  -0.5000000   0.1250000), wk =   0.0039062
        k(   35) = (  -0.0000000  -0.5000000   0.2500000), wk =   0.0039062
        k(   36) = (  -0.0000000  -0.5000000   0.3750000), wk =   0.0039062
        k(   37) = (   0.0000000  -0.5000000  -0.5000000), wk =   0.0039062
        k(   38) = (  -0.0000000  -0.5000000  -0.3750000), wk =   0.0039062
        k(   39) = (   0.0000000  -0.5000000  -0.2500000), wk =   0.0039062
        k(   40) = (  -0.0000000  -0.5000000  -0.1250000), wk =   0.0039062
        k(   41) = (   0.0000000  -0.3750000   0.0000000), wk =   0.0039062
        k(   42) = (   0.0000000  -0.3750000   0.1250000), wk =   0.0039062
        k(   43) = (  -0.0000000  -0.3750000   0.2500000), wk =   0.0039062
        k(   44) = (   0.0000000  -0.3750000   0.3750000), wk =   0.0039062
        k(   45) = (   0.0000000  -0.3750000  -0.5000000), wk =   0.0039062
        k(   46) = (  -0.0000000  -0.3750000  -0.3750000), wk =   0.0039062
        k(   47) = (   0.0000000  -0.3750000  -0.2500000), wk =   0.0039062
        k(   48) = (   0.0000000  -0.3750000  -0.1250000), wk =   0.0039062
        k(   49) = (  -0.0000000  -0.2500000   0.0000000), wk =   0.0039062
        k(   50) = (  -0.0000000  -0.2500000   0.1250000), wk =   0.0039062
        k(   51) = (  -0.0000000  -0.2500000   0.2500000), wk =   0.0039062
        k(   52) = (  -0.0000000  -0.2500000   0.3750000), wk =   0.0039062
        k(   53) = (  -0.0000000  -0.2500000  -0.5000000), wk =   0.0039062
        k(   54) = (   0.0000000  -0.2500000  -0.3750000), wk =   0.0039062
        k(   55) = (   0.0000000  -0.2500000  -0.2500000), wk =   0.0039062
        k(   56) = (   0.0000000  -0.2500000  -0.1250000), wk =   0.0039062
        k(   57) = (  -0.0000000  -0.1250000   0.0000000), wk =   0.0039062
        k(   58) = (  -0.0000000  -0.1250000   0.1250000), wk =   0.0039062
        k(   59) = (  -0.0000000  -0.1250000   0.2500000), wk =   0.0039062
        k(   60) = (  -0.0000000  -0.1250000   0.3750000), wk =   0.0039062
        k(   61) = (  -0.0000000  -0.1250000  -0.5000000), wk =   0.0039062
        k(   62) = (   0.0000000  -0.1250000  -0.3750000), wk =   0.0039062
        k(   63) = (  -0.0000000  -0.1250000  -0.2500000), wk =   0.0039062
        k(   64) = (   0.0000000  -0.1250000  -0.1250000), wk =   0.0039062
        k(   65) = (   0.1250000   0.0000000   0.0000000), wk =   0.0039062
        k(   66) = (   0.1250000   0.0000000   0.1250000), wk =   0.0039062
        k(   67) = (   0.1250000   0.0000000   0.2500000), wk =   0.0039062
        k(   68) = (   0.1250000   0.0000000   0.3750000), wk =   0.0039062
        k(   69) = (   0.1250000   0.0000000  -0.5000000), wk =   0.0039062
        k(   70) = (   0.1250000   0.0000000  -0.3750000), wk =   0.0039062
        k(   71) = (   0.1250000   0.0000000  -0.2500000), wk =   0.0039062
        k(   72) = (   0.1250000   0.0000000  -0.1250000), wk =   0.0039062
        k(   73) = (   0.1250000   0.1250000   0.0000000), wk =   0.0039062
        k(   74) = (   0.1250000   0.1250000   0.1250000), wk =   0.0039062
        k(   75) = (   0.1250000   0.1250000   0.2500000), wk =   0.0039062
        k(   76) = (   0.1250000   0.1250000   0.3750000), wk =   0.0039062
        k(   77) = (   0.1250000   0.1250000  -0.5000000), wk =   0.0039062
        k(   78) = (   0.1250000   0.1250000  -0.3750000), wk =   0.0039062
        k(   79) = (   0.1250000   0.1250000  -0.2500000), wk =   0.0039062
        k(   80) = (   0.1250000   0.1250000  -0.1250000), wk =   0.0039062
        k(   81) = (   0.1250000   0.2500000   0.0000000), wk =   0.0039062
        k(   82) = (   0.1250000   0.2500000   0.1250000), wk =   0.0039062
        k(   83) = (   0.1250000   0.2500000   0.2500000), wk =   0.0039062
        k(   84) = (   0.1250000   0.2500000   0.3750000), wk =   0.0039062
        k(   85) = (   0.1250000   0.2500000  -0.5000000), wk =   0.0039062
        k(   86) = (   0.1250000   0.2500000  -0.3750000), wk =   0.0039062
        k(   87) = (   0.1250000   0.2500000  -0.2500000), wk =   0.0039062
        k(   88) = (   0.1250000   0.2500000  -0.1250000), wk =   0.0039062
        k(   89) = (   0.1250000   0.3750000   0.0000000), wk =   0.0039062
        k(   90) = (   0.1250000   0.3750000   0.1250000), wk =   0.0039062
        k(   91) = (   0.1250000   0.3750000   0.2500000), wk =   0.0039062
        k(   92) = (   0.1250000   0.3750000   0.3750000), wk =   0.0039062
        k(   93) = (   0.1250000   0.3750000  -0.5000000), wk =   0.0039062
        k(   94) = (   0.1250000   0.3750000  -0.3750000), wk =   0.0039062
        k(   95) = (   0.1250000   0.3750000  -0.2500000), wk =   0.0039062
        k(   96) = (   0.1250000   0.3750000  -0.1250000), wk =   0.0039062
        k(   97) = (   0.1250000  -0.5000000   0.0000000), wk =   0.0039062
        k(   98) = (   0.1250000  -0.5000000   0.1250000), wk =   0.0039062
        k(   99) = (   0.1250000  -0.5000000   0.2500000), wk =   0.0039062
        k(  100) = (   0.1250000  -0.5000000   0.3750000), wk =   0.0039062
        k(  101) = (   0.1250000  -0.5000000  -0.5000000), wk =   0.0039062
        k(  102) = (   0.1250000  -0.5000000  -0.3750000), wk =   0.0039062
        k(  103) = (   0.1250000  -0.5000000  -0.2500000), wk =   0.0039062
        k(  104) = (   0.1250000  -0.5000000  -0.1250000), wk =   0.0039062
        k(  105) = (   0.1250000  -0.3750000   0.0000000), wk =   0.0039062
        k(  106) = (   0.1250000  -0.3750000   0.1250000), wk =   0.0039062
        k(  107) = (   0.1250000  -0.3750000   0.2500000), wk =   0.0039062
        k(  108) = (   0.1250000  -0.3750000   0.3750000), wk =   0.0039062
        k(  109) = (   0.1250000  -0.3750000  -0.5000000), wk =   0.0039062
        k(  110) = (   0.1250000  -0.3750000  -0.3750000), wk =   0.0039062
        k(  111) = (   0.1250000  -0.3750000  -0.2500000), wk =   0.0039062
        k(  112) = (   0.1250000  -0.3750000  -0.1250000), wk =   0.0039062
        k(  113) = (   0.1250000  -0.2500000   0.0000000), wk =   0.0039062
        k(  114) = (   0.1250000  -0.2500000   0.1250000), wk =   0.0039062
        k(  115) = (   0.1250000  -0.2500000   0.2500000), wk =   0.0039062
        k(  116) = (   0.1250000  -0.2500000   0.3750000), wk =   0.0039062
        k(  117) = (   0.1250000  -0.2500000  -0.5000000), wk =   0.0039062
        k(  118) = (   0.1250000  -0.2500000  -0.3750000), wk =   0.0039062
        k(  119) = (   0.1250000  -0.2500000  -0.2500000), wk =   0.0039062
        k(  120) = (   0.1250000  -0.2500000  -0.1250000), wk =   0.0039062
        k(  121) = (   0.1250000  -0.1250000   0.0000000), wk =   0.0039062
        k(  122) = (   0.1250000  -0.1250000   0.1250000), wk =   0.0039062
        k(  123) = (   0.1250000  -0.1250000   0.2500000), wk =   0.0039062
        k(  124) = (   0.1250000  -0.1250000   0.3750000), wk =   0.0039062
        k(  125) = (   0.1250000  -0.1250000  -0.5000000), wk =   0.0039062
        k(  126) = (   0.1250000  -0.1250000  -0.3750000), wk =   0.0039062
        k(  127) = (   0.1250000  -0.1250000  -0.2500000), wk =   0.0039062
        k(  128) = (   0.1250000  -0.1250000  -0.1250000), wk =   0.0039062
        k(  129) = (   0.2500000   0.0000000   0.0000000), wk =   0.0039062
        k(  130) = (   0.2500000   0.0000000   0.1250000), wk =   0.0039062
        k(  131) = (   0.2500000   0.0000000   0.2500000), wk =   0.0039062
        k(  132) = (   0.2500000   0.0000000   0.3750000), wk =   0.0039062
        k(  133) = (   0.2500000   0.0000000  -0.5000000), wk =   0.0039062
        k(  134) = (   0.2500000   0.0000000  -0.3750000), wk =   0.0039062
        k(  135) = (   0.2500000   0.0000000  -0.2500000), wk =   0.0039062
        k(  136) = (   0.2500000   0.0000000  -0.1250000), wk =   0.0039062
        k(  137) = (   0.2500000   0.1250000   0.0000000), wk =   0.0039062
        k(  138) = (   0.2500000   0.1250000   0.1250000), wk =   0.0039062
        k(  139) = (   0.2500000   0.1250000   0.2500000), wk =   0.0039062
        k(  140) = (   0.2500000   0.1250000   0.3750000), wk =   0.0039062
        k(  141) = (   0.2500000   0.1250000  -0.5000000), wk =   0.0039062
        k(  142) = (   0.2500000   0.1250000  -0.3750000), wk =   0.0039062
        k(  143) = (   0.2500000   0.1250000  -0.2500000), wk =   0.0039062
        k(  144) = (   0.2500000   0.1250000  -0.1250000), wk =   0.0039062
        k(  145) = (   0.2500000   0.2500000   0.0000000), wk =   0.0039062
        k(  146) = (   0.2500000   0.2500000   0.1250000), wk =   0.0039062
        k(  147) = (   0.2500000   0.2500000   0.2500000), wk =   0.0039062
        k(  148) = (   0.2500000   0.2500000   0.3750000), wk =   0.0039062
        k(  149) = (   0.2500000   0.2500000  -0.5000000), wk =   0.0039062
        k(  150) = (   0.2500000   0.2500000  -0.3750000), wk =   0.0039062
        k(  151) = (   0.2500000   0.2500000  -0.2500000), wk =   0.0039062
        k(  152) = (   0.2500000   0.2500000  -0.1250000), wk =   0.0039062
        k(  153) = (   0.2500000   0.3750000   0.0000000), wk =   0.0039062
        k(  154) = (   0.2500000   0.3750000   0.1250000), wk =   0.0039062
        k(  155) = (   0.2500000   0.3750000   0.2500000), wk =   0.0039062
        k(  156) = (   0.2500000   0.3750000   0.3750000), wk =   0.0039062
        k(  157) = (   0.2500000   0.3750000  -0.5000000), wk =   0.0039062
        k(  158) = (   0.2500000   0.3750000  -0.3750000), wk =   0.0039062
        k(  159) = (   0.2500000   0.3750000  -0.2500000), wk =   0.0039062
        k(  160) = (   0.2500000   0.3750000  -0.1250000), wk =   0.0039062
        k(  161) = (   0.2500000  -0.5000000   0.0000000), wk =   0.0039062
        k(  162) = (   0.2500000  -0.5000000   0.1250000), wk =   0.0039062
        k(  163) = (   0.2500000  -0.5000000   0.2500000), wk =   0.0039062
        k(  164) = (   0.2500000  -0.5000000   0.3750000), wk =   0.0039062
        k(  165) = (   0.2500000  -0.5000000  -0.5000000), wk =   0.0039062
        k(  166) = (   0.2500000  -0.5000000  -0.3750000), wk =   0.0039062
        k(  167) = (   0.2500000  -0.5000000  -0.2500000), wk =   0.0039062
        k(  168) = (   0.2500000  -0.5000000  -0.1250000), wk =   0.0039062
        k(  169) = (   0.2500000  -0.3750000   0.0000000), wk =   0.0039062
        k(  170) = (   0.2500000  -0.3750000   0.1250000), wk =   0.0039062
        k(  171) = (   0.2500000  -0.3750000   0.2500000), wk =   0.0039062
        k(  172) = (   0.2500000  -0.3750000   0.3750000), wk =   0.0039062
        k(  173) = (   0.2500000  -0.3750000  -0.5000000), wk =   0.0039062
        k(  174) = (   0.2500000  -0.3750000  -0.3750000), wk =   0.0039062
        k(  175) = (   0.2500000  -0.3750000  -0.2500000), wk =   0.0039062
        k(  176) = (   0.2500000  -0.3750000  -0.1250000), wk =   0.0039062
        k(  177) = (   0.2500000  -0.2500000   0.0000000), wk =   0.0039062
        k(  178) = (   0.2500000  -0.2500000   0.1250000), wk =   0.0039062
        k(  179) = (   0.2500000  -0.2500000   0.2500000), wk =   0.0039062
        k(  180) = (   0.2500000  -0.2500000   0.3750000), wk =   0.0039062
        k(  181) = (   0.2500000  -0.2500000  -0.5000000), wk =   0.0039062
        k(  182) = (   0.2500000  -0.2500000  -0.3750000), wk =   0.0039062
        k(  183) = (   0.2500000  -0.2500000  -0.2500000), wk =   0.0039062
        k(  184) = (   0.2500000  -0.2500000  -0.1250000), wk =   0.0039062
        k(  185) = (   0.2500000  -0.1250000   0.0000000), wk =   0.0039062
        k(  186) = (   0.2500000  -0.1250000   0.1250000), wk =   0.0039062
        k(  187) = (   0.2500000  -0.1250000   0.2500000), wk =   0.0039062
        k(  188) = (   0.2500000  -0.1250000   0.3750000), wk =   0.0039062
        k(  189) = (   0.2500000  -0.1250000  -0.5000000), wk =   0.0039062
        k(  190) = (   0.2500000  -0.1250000  -0.3750000), wk =   0.0039062
        k(  191) = (   0.2500000  -0.1250000  -0.2500000), wk =   0.0039062
        k(  192) = (   0.2500000  -0.1250000  -0.1250000), wk =   0.0039062
        k(  193) = (   0.3750000   0.0000000   0.0000000), wk =   0.0039062
        k(  194) = (   0.3750000   0.0000000   0.1250000), wk =   0.0039062
        k(  195) = (   0.3750000   0.0000000   0.2500000), wk =   0.0039062
        k(  196) = (   0.3750000   0.0000000   0.3750000), wk =   0.0039062
        k(  197) = (   0.3750000   0.0000000  -0.5000000), wk =   0.0039062
        k(  198) = (   0.3750000   0.0000000  -0.3750000), wk =   0.0039062
        k(  199) = (   0.3750000   0.0000000  -0.2500000), wk =   0.0039062
        k(  200) = (   0.3750000   0.0000000  -0.1250000), wk =   0.0039062
        k(  201) = (   0.3750000   0.1250000   0.0000000), wk =   0.0039062
        k(  202) = (   0.3750000   0.1250000   0.1250000), wk =   0.0039062
        k(  203) = (   0.3750000   0.1250000   0.2500000), wk =   0.0039062
        k(  204) = (   0.3750000   0.1250000   0.3750000), wk =   0.0039062
        k(  205) = (   0.3750000   0.1250000  -0.5000000), wk =   0.0039062
        k(  206) = (   0.3750000   0.1250000  -0.3750000), wk =   0.0039062
        k(  207) = (   0.3750000   0.1250000  -0.2500000), wk =   0.0039062
        k(  208) = (   0.3750000   0.1250000  -0.1250000), wk =   0.0039062
        k(  209) = (   0.3750000   0.2500000   0.0000000), wk =   0.0039062
        k(  210) = (   0.3750000   0.2500000   0.1250000), wk =   0.0039062
        k(  211) = (   0.3750000   0.2500000   0.2500000), wk =   0.0039062
        k(  212) = (   0.3750000   0.2500000   0.3750000), wk =   0.0039062
        k(  213) = (   0.3750000   0.2500000  -0.5000000), wk =   0.0039062
        k(  214) = (   0.3750000   0.2500000  -0.3750000), wk =   0.0039062
        k(  215) = (   0.3750000   0.2500000  -0.2500000), wk =   0.0039062
        k(  216) = (   0.3750000   0.2500000  -0.1250000), wk =   0.0039062
        k(  217) = (   0.3750000   0.3750000   0.0000000), wk =   0.0039062
        k(  218) = (   0.3750000   0.3750000   0.1250000), wk =   0.0039062
        k(  219) = (   0.3750000   0.3750000   0.2500000), wk =   0.0039062
        k(  220) = (   0.3750000   0.3750000   0.3750000), wk =   0.0039062
        k(  221) = (   0.3750000   0.3750000  -0.5000000), wk =   0.0039062
        k(  222) = (   0.3750000   0.3750000  -0.3750000), wk =   0.0039062
        k(  223) = (   0.3750000   0.3750000  -0.2500000), wk =   0.0039062
        k(  224) = (   0.3750000   0.3750000  -0.1250000), wk =   0.0039062
        k(  225) = (   0.3750000  -0.5000000   0.0000000), wk =   0.0039062
        k(  226) = (   0.3750000  -0.5000000   0.1250000), wk =   0.0039062
        k(  227) = (   0.3750000  -0.5000000   0.2500000), wk =   0.0039062
        k(  228) = (   0.3750000  -0.5000000   0.3750000), wk =   0.0039062
        k(  229) = (   0.3750000  -0.5000000  -0.5000000), wk =   0.0039062
        k(  230) = (   0.3750000  -0.5000000  -0.3750000), wk =   0.0039062
        k(  231) = (   0.3750000  -0.5000000  -0.2500000), wk =   0.0039062
        k(  232) = (   0.3750000  -0.5000000  -0.1250000), wk =   0.0039062
        k(  233) = (   0.3750000  -0.3750000   0.0000000), wk =   0.0039062
        k(  234) = (   0.3750000  -0.3750000   0.1250000), wk =   0.0039062
        k(  235) = (   0.3750000  -0.3750000   0.2500000), wk =   0.0039062
        k(  236) = (   0.3750000  -0.3750000   0.3750000), wk =   0.0039062
        k(  237) = (   0.3750000  -0.3750000  -0.5000000), wk =   0.0039062
        k(  238) = (   0.3750000  -0.3750000  -0.3750000), wk =   0.0039062
        k(  239) = (   0.3750000  -0.3750000  -0.2500000), wk =   0.0039062
        k(  240) = (   0.3750000  -0.3750000  -0.1250000), wk =   0.0039062
        k(  241) = (   0.3750000  -0.2500000   0.0000000), wk =   0.0039062
        k(  242) = (   0.3750000  -0.2500000   0.1250000), wk =   0.0039062
        k(  243) = (   0.3750000  -0.2500000   0.2500000), wk =   0.0039062
        k(  244) = (   0.3750000  -0.2500000   0.3750000), wk =   0.0039062
        k(  245) = (   0.3750000  -0.2500000  -0.5000000), wk =   0.0039062
        k(  246) = (   0.3750000  -0.2500000  -0.3750000), wk =   0.0039062
        k(  247) = (   0.3750000  -0.2500000  -0.2500000), wk =   0.0039062
        k(  248) = (   0.3750000  -0.2500000  -0.1250000), wk =   0.0039062
        k(  249) = (   0.3750000  -0.1250000   0.0000000), wk =   0.0039062
        k(  250) = (   0.3750000  -0.1250000   0.1250000), wk =   0.0039062
        k(  251) = (   0.3750000  -0.1250000   0.2500000), wk =   0.0039062
        k(  252) = (   0.3750000  -0.1250000   0.3750000), wk =   0.0039062
        k(  253) = (   0.3750000  -0.1250000  -0.5000000), wk =   0.0039062
        k(  254) = (   0.3750000  -0.1250000  -0.3750000), wk =   0.0039062
        k(  255) = (   0.3750000  -0.1250000  -0.2500000), wk =   0.0039062
        k(  256) = (   0.3750000  -0.1250000  -0.1250000), wk =   0.0039062
        k(  257) = (  -0.5000000  -0.0000000  -0.0000000), wk =   0.0039062
        k(  258) = (  -0.5000000  -0.0000000   0.1250000), wk =   0.0039062
        k(  259) = (  -0.5000000  -0.0000000   0.2500000), wk =   0.0039062
        k(  260) = (  -0.5000000   0.0000000   0.3750000), wk =   0.0039062
        k(  261) = (  -0.5000000  -0.0000000  -0.5000000), wk =   0.0039062
        k(  262) = (  -0.5000000  -0.0000000  -0.3750000), wk =   0.0039062
        k(  263) = (  -0.5000000  -0.0000000  -0.2500000), wk =   0.0039062
        k(  264) = (  -0.5000000  -0.0000000  -0.1250000), wk =   0.0039062
        k(  265) = (  -0.5000000   0.1250000  -0.0000000), wk =   0.0039062
        k(  266) = (  -0.5000000   0.1250000   0.1250000), wk =   0.0039062
        k(  267) = (  -0.5000000   0.1250000   0.2500000), wk =   0.0039062
        k(  268) = (  -0.5000000   0.1250000   0.3750000), wk =   0.0039062
        k(  269) = (  -0.5000000   0.1250000  -0.5000000), wk =   0.0039062
        k(  270) = (  -0.5000000   0.1250000  -0.3750000), wk =   0.0039062
        k(  271) = (  -0.5000000   0.1250000  -0.2500000), wk =   0.0039062
        k(  272) = (  -0.5000000   0.1250000  -0.1250000), wk =   0.0039062
        k(  273) = (  -0.5000000   0.2500000  -0.0000000), wk =   0.0039062
        k(  274) = (  -0.5000000   0.2500000   0.1250000), wk =   0.0039062
        k(  275) = (  -0.5000000   0.2500000   0.2500000), wk =   0.0039062
        k(  276) = (  -0.5000000   0.2500000   0.3750000), wk =   0.0039062
        k(  277) = (  -0.5000000   0.2500000  -0.5000000), wk =   0.0039062
        k(  278) = (  -0.5000000   0.2500000  -0.3750000), wk =   0.0039062
        k(  279) = (  -0.5000000   0.2500000  -0.2500000), wk =   0.0039062
        k(  280) = (  -0.5000000   0.2500000  -0.1250000), wk =   0.0039062
        k(  281) = (  -0.5000000   0.3750000  -0.0000000), wk =   0.0039062
        k(  282) = (  -0.5000000   0.3750000   0.1250000), wk =   0.0039062
        k(  283) = (  -0.5000000   0.3750000   0.2500000), wk =   0.0039062
        k(  284) = (  -0.5000000   0.3750000   0.3750000), wk =   0.0039062
        k(  285) = (  -0.5000000   0.3750000  -0.5000000), wk =   0.0039062
        k(  286) = (  -0.5000000   0.3750000  -0.3750000), wk =   0.0039062
        k(  287) = (  -0.5000000   0.3750000  -0.2500000), wk =   0.0039062
        k(  288) = (  -0.5000000   0.3750000  -0.1250000), wk =   0.0039062
        k(  289) = (  -0.5000000  -0.5000000  -0.0000000), wk =   0.0039062
        k(  290) = (  -0.5000000  -0.5000000   0.1250000), wk =   0.0039062
        k(  291) = (  -0.5000000  -0.5000000   0.2500000), wk =   0.0039062
        k(  292) = (  -0.5000000  -0.5000000   0.3750000), wk =   0.0039062
        k(  293) = (  -0.5000000  -0.5000000  -0.5000000), wk =   0.0039062
        k(  294) = (  -0.5000000  -0.5000000  -0.3750000), wk =   0.0039062
        k(  295) = (  -0.5000000  -0.5000000  -0.2500000), wk =   0.0039062
        k(  296) = (  -0.5000000  -0.5000000  -0.1250000), wk =   0.0039062
        k(  297) = (  -0.5000000  -0.3750000  -0.0000000), wk =   0.0039062
        k(  298) = (  -0.5000000  -0.3750000   0.1250000), wk =   0.0039062
        k(  299) = (  -0.5000000  -0.3750000   0.2500000), wk =   0.0039062
        k(  300) = (  -0.5000000  -0.3750000   0.3750000), wk =   0.0039062
        k(  301) = (  -0.5000000  -0.3750000  -0.5000000), wk =   0.0039062
        k(  302) = (  -0.5000000  -0.3750000  -0.3750000), wk =   0.0039062
        k(  303) = (  -0.5000000  -0.3750000  -0.2500000), wk =   0.0039062
        k(  304) = (  -0.5000000  -0.3750000  -0.1250000), wk =   0.0039062
        k(  305) = (  -0.5000000  -0.2500000  -0.0000000), wk =   0.0039062
        k(  306) = (  -0.5000000  -0.2500000   0.1250000), wk =   0.0039062
        k(  307) = (  -0.5000000  -0.2500000   0.2500000), wk =   0.0039062
        k(  308) = (  -0.5000000  -0.2500000   0.3750000), wk =   0.0039062
        k(  309) = (  -0.5000000  -0.2500000  -0.5000000), wk =   0.0039062
        k(  310) = (  -0.5000000  -0.2500000  -0.3750000), wk =   0.0039062
        k(  311) = (  -0.5000000  -0.2500000  -0.2500000), wk =   0.0039062
        k(  312) = (  -0.5000000  -0.2500000  -0.1250000), wk =   0.0039062
        k(  313) = (  -0.5000000  -0.1250000  -0.0000000), wk =   0.0039062
        k(  314) = (  -0.5000000  -0.1250000   0.1250000), wk =   0.0039062
        k(  315) = (  -0.5000000  -0.1250000   0.2500000), wk =   0.0039062
        k(  316) = (  -0.5000000  -0.1250000   0.3750000), wk =   0.0039062
        k(  317) = (  -0.5000000  -0.1250000  -0.5000000), wk =   0.0039062
        k(  318) = (  -0.5000000  -0.1250000  -0.3750000), wk =   0.0039062
        k(  319) = (  -0.5000000  -0.1250000  -0.2500000), wk =   0.0039062
        k(  320) = (  -0.5000000  -0.1250000  -0.1250000), wk =   0.0039062
        k(  321) = (  -0.3750000  -0.0000000  -0.0000000), wk =   0.0039062
        k(  322) = (  -0.3750000  -0.0000000   0.1250000), wk =   0.0039062
        k(  323) = (  -0.3750000  -0.0000000   0.2500000), wk =   0.0039062
        k(  324) = (  -0.3750000  -0.0000000   0.3750000), wk =   0.0039062
        k(  325) = (  -0.3750000   0.0000000  -0.5000000), wk =   0.0039062
        k(  326) = (  -0.3750000  -0.0000000  -0.3750000), wk =   0.0039062
        k(  327) = (  -0.3750000  -0.0000000  -0.2500000), wk =   0.0039062
        k(  328) = (  -0.3750000  -0.0000000  -0.1250000), wk =   0.0039062
        k(  329) = (  -0.3750000   0.1250000  -0.0000000), wk =   0.0039062
        k(  330) = (  -0.3750000   0.1250000   0.1250000), wk =   0.0039062
        k(  331) = (  -0.3750000   0.1250000   0.2500000), wk =   0.0039062
        k(  332) = (  -0.3750000   0.1250000   0.3750000), wk =   0.0039062
        k(  333) = (  -0.3750000   0.1250000  -0.5000000), wk =   0.0039062
        k(  334) = (  -0.3750000   0.1250000  -0.3750000), wk =   0.0039062
        k(  335) = (  -0.3750000   0.1250000  -0.2500000), wk =   0.0039062
        k(  336) = (  -0.3750000   0.1250000  -0.1250000), wk =   0.0039062
        k(  337) = (  -0.3750000   0.2500000   0.0000000), wk =   0.0039062
        k(  338) = (  -0.3750000   0.2500000   0.1250000), wk =   0.0039062
        k(  339) = (  -0.3750000   0.2500000   0.2500000), wk =   0.0039062
        k(  340) = (  -0.3750000   0.2500000   0.3750000), wk =   0.0039062
        k(  341) = (  -0.3750000   0.2500000  -0.5000000), wk =   0.0039062
        k(  342) = (  -0.3750000   0.2500000  -0.3750000), wk =   0.0039062
        k(  343) = (  -0.3750000   0.2500000  -0.2500000), wk =   0.0039062
        k(  344) = (  -0.3750000   0.2500000  -0.1250000), wk =   0.0039062
        k(  345) = (  -0.3750000   0.3750000   0.0000000), wk =   0.0039062
        k(  346) = (  -0.3750000   0.3750000   0.1250000), wk =   0.0039062
        k(  347) = (  -0.3750000   0.3750000   0.2500000), wk =   0.0039062
        k(  348) = (  -0.3750000   0.3750000   0.3750000), wk =   0.0039062
        k(  349) = (  -0.3750000   0.3750000  -0.5000000), wk =   0.0039062
        k(  350) = (  -0.3750000   0.3750000  -0.3750000), wk =   0.0039062
        k(  351) = (  -0.3750000   0.3750000  -0.2500000), wk =   0.0039062
        k(  352) = (  -0.3750000   0.3750000  -0.1250000), wk =   0.0039062
        k(  353) = (  -0.3750000  -0.5000000  -0.0000000), wk =   0.0039062
        k(  354) = (  -0.3750000  -0.5000000   0.1250000), wk =   0.0039062
        k(  355) = (  -0.3750000  -0.5000000   0.2500000), wk =   0.0039062
        k(  356) = (  -0.3750000  -0.5000000   0.3750000), wk =   0.0039062
        k(  357) = (  -0.3750000  -0.5000000  -0.5000000), wk =   0.0039062
        k(  358) = (  -0.3750000  -0.5000000  -0.3750000), wk =   0.0039062
        k(  359) = (  -0.3750000  -0.5000000  -0.2500000), wk =   0.0039062
        k(  360) = (  -0.3750000  -0.5000000  -0.1250000), wk =   0.0039062
        k(  361) = (  -0.3750000  -0.3750000  -0.0000000), wk =   0.0039062
        k(  362) = (  -0.3750000  -0.3750000   0.1250000), wk =   0.0039062
        k(  363) = (  -0.3750000  -0.3750000   0.2500000), wk =   0.0039062
        k(  364) = (  -0.3750000  -0.3750000   0.3750000), wk =   0.0039062
        k(  365) = (  -0.3750000  -0.3750000  -0.5000000), wk =   0.0039062
        k(  366) = (  -0.3750000  -0.3750000  -0.3750000), wk =   0.0039062
        k(  367) = (  -0.3750000  -0.3750000  -0.2500000), wk =   0.0039062
        k(  368) = (  -0.3750000  -0.3750000  -0.1250000), wk =   0.0039062
        k(  369) = (  -0.3750000  -0.2500000  -0.0000000), wk =   0.0039062
        k(  370) = (  -0.3750000  -0.2500000   0.1250000), wk =   0.0039062
        k(  371) = (  -0.3750000  -0.2500000   0.2500000), wk =   0.0039062
        k(  372) = (  -0.3750000  -0.2500000   0.3750000), wk =   0.0039062
        k(  373) = (  -0.3750000  -0.2500000  -0.5000000), wk =   0.0039062
        k(  374) = (  -0.3750000  -0.2500000  -0.3750000), wk =   0.0039062
        k(  375) = (  -0.3750000  -0.2500000  -0.2500000), wk =   0.0039062
        k(  376) = (  -0.3750000  -0.2500000  -0.1250000), wk =   0.0039062
        k(  377) = (  -0.3750000  -0.1250000  -0.0000000), wk =   0.0039062
        k(  378) = (  -0.3750000  -0.1250000   0.1250000), wk =   0.0039062
        k(  379) = (  -0.3750000  -0.1250000   0.2500000), wk =   0.0039062
        k(  380) = (  -0.3750000  -0.1250000   0.3750000), wk =   0.0039062
        k(  381) = (  -0.3750000  -0.1250000  -0.5000000), wk =   0.0039062
        k(  382) = (  -0.3750000  -0.1250000  -0.3750000), wk =   0.0039062
        k(  383) = (  -0.3750000  -0.1250000  -0.2500000), wk =   0.0039062
        k(  384) = (  -0.3750000  -0.1250000  -0.1250000), wk =   0.0039062
        k(  385) = (  -0.2500000  -0.0000000  -0.0000000), wk =   0.0039062
        k(  386) = (  -0.2500000  -0.0000000   0.1250000), wk =   0.0039062
        k(  387) = (  -0.2500000  -0.0000000   0.2500000), wk =   0.0039062
        k(  388) = (  -0.2500000  -0.0000000   0.3750000), wk =   0.0039062
        k(  389) = (  -0.2500000   0.0000000  -0.5000000), wk =   0.0039062
        k(  390) = (  -0.2500000  -0.0000000  -0.3750000), wk =   0.0039062
        k(  391) = (  -0.2500000  -0.0000000  -0.2500000), wk =   0.0039062
        k(  392) = (  -0.2500000  -0.0000000  -0.1250000), wk =   0.0039062
        k(  393) = (  -0.2500000   0.1250000  -0.0000000), wk =   0.0039062
        k(  394) = (  -0.2500000   0.1250000   0.1250000), wk =   0.0039062
        k(  395) = (  -0.2500000   0.1250000   0.2500000), wk =   0.0039062
        k(  396) = (  -0.2500000   0.1250000   0.3750000), wk =   0.0039062
        k(  397) = (  -0.2500000   0.1250000  -0.5000000), wk =   0.0039062
        k(  398) = (  -0.2500000   0.1250000  -0.3750000), wk =   0.0039062
        k(  399) = (  -0.2500000   0.1250000  -0.2500000), wk =   0.0039062
        k(  400) = (  -0.2500000   0.1250000  -0.1250000), wk =   0.0039062
        k(  401) = (  -0.2500000   0.2500000  -0.0000000), wk =   0.0039062
        k(  402) = (  -0.2500000   0.2500000   0.1250000), wk =   0.0039062
        k(  403) = (  -0.2500000   0.2500000   0.2500000), wk =   0.0039062
        k(  404) = (  -0.2500000   0.2500000   0.3750000), wk =   0.0039062
        k(  405) = (  -0.2500000   0.2500000  -0.5000000), wk =   0.0039062
        k(  406) = (  -0.2500000   0.2500000  -0.3750000), wk =   0.0039062
        k(  407) = (  -0.2500000   0.2500000  -0.2500000), wk =   0.0039062
        k(  408) = (  -0.2500000   0.2500000  -0.1250000), wk =   0.0039062
        k(  409) = (  -0.2500000   0.3750000  -0.0000000), wk =   0.0039062
        k(  410) = (  -0.2500000   0.3750000   0.1250000), wk =   0.0039062
        k(  411) = (  -0.2500000   0.3750000   0.2500000), wk =   0.0039062
        k(  412) = (  -0.2500000   0.3750000   0.3750000), wk =   0.0039062
        k(  413) = (  -0.2500000   0.3750000  -0.5000000), wk =   0.0039062
        k(  414) = (  -0.2500000   0.3750000  -0.3750000), wk =   0.0039062
        k(  415) = (  -0.2500000   0.3750000  -0.2500000), wk =   0.0039062
        k(  416) = (  -0.2500000   0.3750000  -0.1250000), wk =   0.0039062
        k(  417) = (  -0.2500000  -0.5000000   0.0000000), wk =   0.0039062
        k(  418) = (  -0.2500000  -0.5000000   0.1250000), wk =   0.0039062
        k(  419) = (  -0.2500000  -0.5000000   0.2500000), wk =   0.0039062
        k(  420) = (  -0.2500000  -0.5000000   0.3750000), wk =   0.0039062
        k(  421) = (  -0.2500000  -0.5000000  -0.5000000), wk =   0.0039062
        k(  422) = (  -0.2500000  -0.5000000  -0.3750000), wk =   0.0039062
        k(  423) = (  -0.2500000  -0.5000000  -0.2500000), wk =   0.0039062
        k(  424) = (  -0.2500000  -0.5000000  -0.1250000), wk =   0.0039062
        k(  425) = (  -0.2500000  -0.3750000  -0.0000000), wk =   0.0039062
        k(  426) = (  -0.2500000  -0.3750000   0.1250000), wk =   0.0039062
        k(  427) = (  -0.2500000  -0.3750000   0.2500000), wk =   0.0039062
        k(  428) = (  -0.2500000  -0.3750000   0.3750000), wk =   0.0039062
        k(  429) = (  -0.2500000  -0.3750000  -0.5000000), wk =   0.0039062
        k(  430) = (  -0.2500000  -0.3750000  -0.3750000), wk =   0.0039062
        k(  431) = (  -0.2500000  -0.3750000  -0.2500000), wk =   0.0039062
        k(  432) = (  -0.2500000  -0.3750000  -0.1250000), wk =   0.0039062
        k(  433) = (  -0.2500000  -0.2500000  -0.0000000), wk =   0.0039062
        k(  434) = (  -0.2500000  -0.2500000   0.1250000), wk =   0.0039062
        k(  435) = (  -0.2500000  -0.2500000   0.2500000), wk =   0.0039062
        k(  436) = (  -0.2500000  -0.2500000   0.3750000), wk =   0.0039062
        k(  437) = (  -0.2500000  -0.2500000  -0.5000000), wk =   0.0039062
        k(  438) = (  -0.2500000  -0.2500000  -0.3750000), wk =   0.0039062
        k(  439) = (  -0.2500000  -0.2500000  -0.2500000), wk =   0.0039062
        k(  440) = (  -0.2500000  -0.2500000  -0.1250000), wk =   0.0039062
        k(  441) = (  -0.2500000  -0.1250000  -0.0000000), wk =   0.0039062
        k(  442) = (  -0.2500000  -0.1250000   0.1250000), wk =   0.0039062
        k(  443) = (  -0.2500000  -0.1250000   0.2500000), wk =   0.0039062
        k(  444) = (  -0.2500000  -0.1250000   0.3750000), wk =   0.0039062
        k(  445) = (  -0.2500000  -0.1250000  -0.5000000), wk =   0.0039062
        k(  446) = (  -0.2500000  -0.1250000  -0.3750000), wk =   0.0039062
        k(  447) = (  -0.2500000  -0.1250000  -0.2500000), wk =   0.0039062
        k(  448) = (  -0.2500000  -0.1250000  -0.1250000), wk =   0.0039062
        k(  449) = (  -0.1250000  -0.0000000  -0.0000000), wk =   0.0039062
        k(  450) = (  -0.1250000  -0.0000000   0.1250000), wk =   0.0039062
        k(  451) = (  -0.1250000   0.0000000   0.2500000), wk =   0.0039062
        k(  452) = (  -0.1250000  -0.0000000   0.3750000), wk =   0.0039062
        k(  453) = (  -0.1250000  -0.0000000  -0.5000000), wk =   0.0039062
        k(  454) = (  -0.1250000  -0.0000000  -0.3750000), wk =   0.0039062
        k(  455) = (  -0.1250000   0.0000000  -0.2500000), wk =   0.0039062
        k(  456) = (  -0.1250000  -0.0000000  -0.1250000), wk =   0.0039062
        k(  457) = (  -0.1250000   0.1250000  -0.0000000), wk =   0.0039062
        k(  458) = (  -0.1250000   0.1250000   0.1250000), wk =   0.0039062
        k(  459) = (  -0.1250000   0.1250000   0.2500000), wk =   0.0039062
        k(  460) = (  -0.1250000   0.1250000   0.3750000), wk =   0.0039062
        k(  461) = (  -0.1250000   0.1250000  -0.5000000), wk =   0.0039062
        k(  462) = (  -0.1250000   0.1250000  -0.3750000), wk =   0.0039062
        k(  463) = (  -0.1250000   0.1250000  -0.2500000), wk =   0.0039062
        k(  464) = (  -0.1250000   0.1250000  -0.1250000), wk =   0.0039062
        k(  465) = (  -0.1250000   0.2500000  -0.0000000), wk =   0.0039062
        k(  466) = (  -0.1250000   0.2500000   0.1250000), wk =   0.0039062
        k(  467) = (  -0.1250000   0.2500000   0.2500000), wk =   0.0039062
        k(  468) = (  -0.1250000   0.2500000   0.3750000), wk =   0.0039062
        k(  469) = (  -0.1250000   0.2500000  -0.5000000), wk =   0.0039062
        k(  470) = (  -0.1250000   0.2500000  -0.3750000), wk =   0.0039062
        k(  471) = (  -0.1250000   0.2500000  -0.2500000), wk =   0.0039062
        k(  472) = (  -0.1250000   0.2500000  -0.1250000), wk =   0.0039062
        k(  473) = (  -0.1250000   0.3750000  -0.0000000), wk =   0.0039062
        k(  474) = (  -0.1250000   0.3750000   0.1250000), wk =   0.0039062
        k(  475) = (  -0.1250000   0.3750000   0.2500000), wk =   0.0039062
        k(  476) = (  -0.1250000   0.3750000   0.3750000), wk =   0.0039062
        k(  477) = (  -0.1250000   0.3750000  -0.5000000), wk =   0.0039062
        k(  478) = (  -0.1250000   0.3750000  -0.3750000), wk =   0.0039062
        k(  479) = (  -0.1250000   0.3750000  -0.2500000), wk =   0.0039062
        k(  480) = (  -0.1250000   0.3750000  -0.1250000), wk =   0.0039062
        k(  481) = (  -0.1250000  -0.5000000   0.0000000), wk =   0.0039062
        k(  482) = (  -0.1250000  -0.5000000   0.1250000), wk =   0.0039062
        k(  483) = (  -0.1250000  -0.5000000   0.2500000), wk =   0.0039062
        k(  484) = (  -0.1250000  -0.5000000   0.3750000), wk =   0.0039062
        k(  485) = (  -0.1250000  -0.5000000  -0.5000000), wk =   0.0039062
        k(  486) = (  -0.1250000  -0.5000000  -0.3750000), wk =   0.0039062
        k(  487) = (  -0.1250000  -0.5000000  -0.2500000), wk =   0.0039062
[...]

    -1.6165  -0.0329  11.0647  15.3708  17.8947  20.6078  21.7167  23.0442

     occupation numbers 
     1.0000   1.0000   1.0000   0.0000   0.0000   0.0000   0.0000   0.0000

          k =-0.1246 0.0978-0.1531 (   719 PWs)   bands (ev):

    -2.2199   1.1811   8.7826  17.2265  18.3682  20.8230  22.2145  23.9786

     occupation numbers 
     1.0000   1.0000   1.0000   0.0000   0.0000   0.0000   0.0000   0.0000

          k =-0.1219 0.0937-0.0771 (   721 PWs)   bands (ev):

    -2.5951   2.6038   6.6925  17.2869  20.3816  21.0257  23.0380  24.2524

     occupation numbers 
     1.0000   1.0000   1.0000   0.0000   0.0000   0.0000   0.0000   0.0000

          k =-0.1081 0.2496-0.0017 (   724 PWs)   bands (ev):

    -1.7154   4.9445   6.0559  14.6093  17.7291  19.6237  21.9935  22.9562

     occupation numbers 
     1.0000   1.0000   1.0000   0.0000   0.0000   0.0000   0.0000   0.0000

          k =-0.1054 0.2456 0.0743 (   726 PWs)   bands (ev):

    -1.6572   4.1709   6.9358  14.8717  17.9429  18.4346  21.4645  22.6850

     occupation numbers 
     1.0000   1.0000   1.0000   0.0000   0.0000   0.0000   0.0000   0.0000

          k =-0.1027 0.2415 0.1503 (   722 PWs)   bands (ev):

    -1.3701   2.6897   8.9236  15.3267  17.3045  18.2724  20.0170  20.9781

     occupation numbers 
     1.0000   1.0000   1.0000   0.0000   0.0000   0.0000   0.0000   0.0000

          k =-0.0999 0.2374 0.2264 (   722 PWs)   bands (ev):

    -0.8550   1.4033  11.1040  15.8628  16.3290  17.4230  19.2533  19.8441

     occupation numbers 
     1.0000   1.0000   1.0000   0.0000   0.0000   0.0000   0.0000   0.0000

          k =-0.1190 0.2658-0.3057 (   716 PWs)   bands (ev):

    -0.1139   0.3317  13.4015  14.5048  15.8278  17.0211  19.0196  19.9888

     occupation numbers 
     1.0000   1.0000   0.0000   0.0000   0.0000   0.0000   0.0000   0.0000

          k =-0.1162 0.2618-0.2297 (   718 PWs)   bands (ev):

    -0.5193   0.8508  12.1944  14.9039  16.1561  17.9785  18.5551  20.9284

     occupation numbers 
     1.0000   1.0000   1.0000   0.0000   0.0000   0.0000   0.0000   0.0000

          k =-0.1135 0.2577-0.1537 (   713 PWs)   bands (ev):

    -1.1454   2.0340   9.9510  14.6817  17.6375  18.9965  19.2676  21.9221

     occupation numbers 
     1.0000   1.0000   1.0000   0.0000   0.0000   0.0000   0.0000   0.0000

          k =-0.1108 0.2537-0.0777 (   719 PWs)   bands (ev):

    -1.5447   3.4263   7.8691  14.5485  17.6729  20.2686  20.8466  22.4124

     occupation numbers 
     1.0000   1.0000   1.0000   0.0000   0.0000   0.0000   0.0000   0.0000

          k =-0.0970 0.4096-0.0023 (   719 PWs)   bands (ev):

     0.3121   6.6959   8.1079  12.2358  12.7637  17.6451  18.1011  19.7233

     occupation numbers 
     1.0000   1.0000   1.0000   1.0000   0.0017   0.0000   0.0000   0.0000

          k =-0.0943 0.4055 0.0737 (   722 PWs)   bands (ev):

     0.3443   6.2575   8.6239  12.4291  13.0048  16.2892  16.9958  21.3528

     occupation numbers 
     1.0000   1.0000   1.0000   0.9987   0.0000   0.0000   0.0000   0.0000

          k =-0.0916 0.4015 0.1498 (   722 PWs)   bands (ev):

     0.6029   4.8002  10.4909  12.8607  13.4439  15.0859  15.8954  21.5536

     occupation numbers 
     1.0000   1.0000   1.0000   0.0000   0.0000   0.0000   0.0000   0.0000

          k =-0.0888 0.3974 0.2258 (   722 PWs)   bands (ev):

     1.0871   3.5149  12.3994  13.4817  13.9495  14.2052  15.1077  19.7271

     occupation numbers 
     1.0000   1.0000   0.9996   0.0000   0.0000   0.0000   0.0000   0.0000

          k =-0.1079 0.4258-0.3063 (   722 PWs)   bands (ev):

     1.7948   2.4350  13.0621  13.6141  14.0764  14.8551  15.7163  17.4727

     occupation numbers 
     1.0000   1.0000   0.0000   0.0000   0.0000   0.0000   0.0000   0.0000

          k =-0.1051 0.4217-0.2303 (   723 PWs)   bands (ev):

     1.5705   2.7233  12.3591  13.2098  14.3673  15.4329  16.4867  17.7635

     occupation numbers 
     1.0000   1.0000   0.9999   0.0000   0.0000   0.0000   0.0000   0.0000

          k =-0.1024 0.4177-0.1543 (   722 PWs)   bands (ev):

     0.9267   3.8663  11.4256  12.8165  13.0223  16.6080  17.4208  19.5557

     occupation numbers 
     1.0000   1.0000   1.0000   0.0002   0.0000   0.0000   0.0000   0.0000

          k =-0.0997 0.4136-0.0783 (   717 PWs)   bands (ev):

     0.5066   5.2133   9.8177  12.3235  12.7299  17.9618  18.4884  19.0505

     occupation numbers 
     1.0000   1.0000   1.0000   1.0000   0.0062   0.0000   0.0000   0.0000

          k =-0.1747-0.7102 0.0019 (   720 PWs)   bands (ev):

     3.3019   7.0267   9.6044  11.1477  11.8760  13.5486  15.0305  17.5062

     occupation numbers 
     1.0000   1.0000   1.0000   1.0000   1.0000   0.0000   0.0000   0.0000

          k =-0.1720-0.7142 0.0779 (   724 PWs)   bands (ev):

     3.3088   7.1687   9.6757  11.0547  11.8724  12.4337  15.8322  17.2573

     occupation numbers 
     1.0000   1.0000   1.0000   1.0000   1.0000   0.9984   0.0000   0.0000

          k =-0.1693-0.7183 0.1539 (   728 PWs)   bands (ev):

     3.5362   7.1628   8.6590  10.5157  12.4468  13.2500  14.9963  19.0013

     occupation numbers 
     1.0000   1.0000   1.0000   1.0000   0.9974   0.0000   0.0000   0.0000

          k =-0.1666-0.7223 0.2299 (   728 PWs)   bands (ev):

     3.9817   6.4006   8.7751   9.4989  13.0683  13.5788  15.6660  20.8815

     occupation numbers 
     1.0000   1.0000   1.0000   1.0000   0.0000   0.0000   0.0000   0.0000

          k =-0.1856-0.6939-0.3022 (   722 PWs)   bands (ev):

     4.6391   5.4270   8.6488   9.5119  12.8721  13.8840  17.6465  19.9561

     occupation numbers 
     1.0000   1.0000   1.0000   1.0000   0.0000   0.0000   0.0000   0.0000

          k =-0.1829-0.6980-0.2261 (   725 PWs)   bands (ev):

     4.5889   5.4896   8.0227  10.5225  12.2806  14.8364  17.8427  18.6783

     occupation numbers 
     1.0000   1.0000   1.0000   1.0000   1.0000   0.0000   0.0000   0.0000

          k =-0.1802-0.7020-0.1501 (   722 PWs)   bands (ev):

     3.9463   6.4361   7.7210  11.6548  11.9432  15.1730  16.3412  17.3356

     occupation numbers 
     1.0000   1.0000   1.0000   1.0000   1.0000   0.0000   0.0000   0.0000

          k =-0.1775-0.7061-0.0741 (   720 PWs)   bands (ev):

     3.5152   6.9362   8.2758  11.6090  12.7269  13.9083  15.1608  17.6661

     occupation numbers 
     1.0000   1.0000   1.0000   1.0000   0.0069   0.0000   0.0000   0.0000

          k =-0.1636-0.5502 0.0013 (   723 PWs)   bands (ev):

     3.2589   7.0774   9.7818  11.0520  11.6663  13.3133  15.4040  17.5685

     occupation numbers 
     1.0000   1.0000   1.0000   1.0000   1.0000   0.0000   0.0000   0.0000

          k =-0.1609-0.5543 0.0773 (   730 PWs)   bands (ev):

     3.4398   6.9820   8.4266  11.8076  12.5986  13.9576  14.8305  16.5315

     occupation numbers 
     1.0000   1.0000   1.0000   1.0000   0.5069   0.0000   0.0000   0.0000

          k =-0.1582-0.5583 0.1533 (   721 PWs)   bands (ev):

     3.8394   6.5473   7.7507  11.7446  12.5399  14.3626  15.5940  17.0039

     occupation numbers 
     1.0000   1.0000   1.0000   1.0000   0.9102   0.0000   0.0000   0.0000

          k =-0.1555-0.5624 0.2293 (   720 PWs)   bands (ev):

     4.4524   5.6017   7.9912  10.6927  12.9796  13.7229  17.4255  18.5898

     occupation numbers 
     1.0000   1.0000   1.0000   1.0000   0.0000   0.0000   0.0000   0.0000

          k =-0.1745-0.5340-0.3027 (   726 PWs)   bands (ev):

     4.7248   5.2655   8.5830   9.6689  12.9379  13.7427  17.9520  19.6105

     occupation numbers 
     1.0000   1.0000   1.0000   1.0000   0.0000   0.0000   0.0000   0.0000

          k =-0.1718-0.5380-0.2267 (   722 PWs)   bands (ev):

     4.0365   6.2337   8.8854   9.4064  12.3109  14.5446  16.0794  20.8695

     occupation numbers 
     1.0000   1.0000   1.0000   1.0000   1.0000   0.0000   0.0000   0.0000

          k =-0.1691-0.5421-0.1507 (   724 PWs)   bands (ev):

     3.5587   7.1025   8.6113  10.4145  11.8694  13.6188  16.1485  19.2736

     occupation numbers 
     1.0000   1.0000   1.0000   1.0000   1.0000   0.0000   0.0000   0.0000

          k =-0.1664-0.5461-0.0747 (   724 PWs)   bands (ev):

     3.2986   7.2220   9.4786  11.1493  11.6156  12.3456  16.8692  17.7812

     occupation numbers 
     1.0000   1.0000   1.0000   1.0000   1.0000   0.9999   0.0000   0.0000

          k =-0.1525-0.3902 0.0007 (   731 PWs)   bands (ev):

     0.2807   6.8662   7.8970  12.2772  12.6270  17.4897  18.5607  19.5002

     occupation numbers 
     1.0000   1.0000   1.0000   1.0000   0.2541   0.0000   0.0000   0.0000

          k =-0.1498-0.3943 0.0767 (   727 PWs)   bands (ev):

     0.4413   5.4086   9.5616  12.3229  12.7771  17.0930  18.2636  19.4349

     occupation numbers 
     1.0000   1.0000   1.0000   1.0000   0.0010   0.0000   0.0000   0.0000

          k =-0.1471-0.3984 0.1527 (   721 PWs)   bands (ev):

     0.8279   4.0334  11.2908  12.7752  13.1346  15.9120  17.0503  19.9911

     occupation numbers 
     1.0000   1.0000   1.0000   0.0011   0.0000   0.0000   0.0000   0.0000

          k =-0.1444-0.4024 0.2287 (   717 PWs)   bands (ev):

     1.4388   2.8591  12.3636  13.6665  13.9847  14.9204  16.0715  18.1642

     occupation numbers 
     1.0000   1.0000   0.9999   0.0000   0.0000   0.0000   0.0000   0.0000

          k =-0.1634-0.3740-0.3033 (   716 PWs)   bands (ev):

     1.8983   2.2711  13.0484  13.8335  14.1423  14.4152  16.1450  17.0508

     occupation numbers 
     1.0000   1.0000   0.0000   0.0000   0.0000   0.0000   0.0000   0.0000

          k =-0.1607-0.3781-0.2273 (   717 PWs)   bands (ev):

     1.1571   3.3201  12.6074  13.3286  13.6454  14.2435  15.8901  19.3012

     occupation numbers 
     1.0000   1.0000   0.4222   0.0000   0.0000   0.0000   0.0000   0.0000

          k =-0.1580-0.3821-0.1513 (   721 PWs)   bands (ev):

     0.6393   4.5774  10.7549  12.8147  13.0665  15.1092  16.8977  21.1197

     occupation numbers 
     1.0000   1.0000   1.0000   0.0002   0.0000   0.0000   0.0000   0.0000

          k =-0.1552-0.3862-0.0753 (   727 PWs)   bands (ev):

     0.3467   6.0182   8.8654  12.4639  12.7094  16.2720  18.1019  20.3737

     occupation numbers 
     1.0000   1.0000   1.0000   0.9949   0.0136   0.0000   0.0000   0.0000

          k =-0.1414-0.2303 0.0001 (   724 PWs)   bands (ev):

    -1.7345   5.0941   5.8737  14.3996  17.7923  20.1546  21.4553  22.6811

     occupation numbers 
     1.0000   1.0000   1.0000   0.0000   0.0000   0.0000   0.0000   0.0000

          k =-0.1387-0.2343 0.0761 (   721 PWs)   bands (ev):

    -1.5981   3.6384   7.5671  14.5438  17.7253  19.0487  21.5012  23.0024

     occupation numbers 
     1.0000   1.0000   1.0000   0.0000   0.0000   0.0000   0.0000   0.0000

          k =-0.1360-0.2384 0.1521 (   718 PWs)   bands (ev):

    -1.2331   2.2168   9.6241  14.8801  17.7357  17.8519  19.3988  22.3102

     occupation numbers 
     1.0000   1.0000   1.0000   0.0000   0.0000   0.0000   0.0000   0.0000

          k =-0.1333-0.2424 0.2281 (   719 PWs)   bands (ev):

    -0.6407   1.0014  11.8545  15.2795  16.4856  16.8756  18.5054  21.1925

     occupation numbers 
     1.0000   1.0000   1.0000   0.0000   0.0000   0.0000   0.0000   0.0000

          k =-0.1523-0.2140-0.3039 (   721 PWs)   bands (ev):

     0.0035   0.1771  13.7594  14.1603  16.0680  16.3538  18.9536  20.2064

     occupation numbers 
     1.0000   1.0000   0.0000   0.0000   0.0000   0.0000   0.0000   0.0000

          k =-0.1496-0.2181-0.2279 (   721 PWs)   bands (ev):

    -0.7713   1.2162  11.4343  15.0795  16.9323  17.2348  19.4349  19.7127

     occupation numbers 
     1.0000   1.0000   1.0000   0.0000   0.0000   0.0000   0.0000   0.0000

          k =-0.1469-0.2222-0.1519 (   723 PWs)   bands (ev):

    -1.3205   2.4715   9.2267  14.7018  18.1221  18.5635  19.7820  20.6763

     occupation numbers 
     1.0000   1.0000   1.0000   0.0000   0.0000   0.0000   0.0000   0.0000

          k =-0.1441-0.2262-0.0759 (   725 PWs)   bands (ev):

    -1.6419   3.9278   7.2050  14.4534  18.0077  19.6557  21.2372  21.8308

     occupation numbers 
     1.0000   1.0000   1.0000   0.0000   0.0000   0.0000   0.0000   0.0000

     the Fermi energy is    12.5994 ev

!    total energy              =     -15.76944046 Ry
     estimated scf accuracy    <       0.00893127 Ry
     smearing contrib. (-TS)   =      -0.00013964 Ry
     internal energy E=F+TS    =     -15.76930082 Ry

     The total energy is F=E-TS. E is the sum of the following terms:
     one-electron contribution =      10.27687597 Ry
     hartree contribution      =       0.05453639 Ry
     xc contribution           =      -5.09387341 Ry
     ewald contribution        =     -21.00683976 Ry

     convergence has been achieved in   1 iterations

     Forces acting on atoms (cartesian axes, Ry/au):

     atom    1 type  1   force =     0.00050228    0.00262480    0.00123805
     atom    2 type  1   force =    -0.00050228   -0.00262480   -0.00123805
     The non-local contrib.  to forces
     atom    1 type  1   force =    -0.00130856    0.00251155    0.00412089
     atom    2 type  1   force =     0.00129992   -0.00251817   -0.00411463
     The ionic contribution  to forces
     atom    1 type  1   force =    -0.00952713   -0.03390857    0.00776813
     atom    2 type  1   force =     0.00952713    0.03390857   -0.00776813
     The local contribution  to forces
     atom    1 type  1   force =     0.01177492    0.03538331   -0.01168140
     atom    2 type  1   force =    -0.01176680   -0.03537791    0.01167809
     The core correction contribution to forces
     atom    1 type  1   force =     0.00000000    0.00000000    0.00000000
     atom    2 type  1   force =     0.00000000    0.00000000    0.00000000
     The Hubbard contrib.    to forces
     atom    1 type  1   force =     0.00000000    0.00000000    0.00000000
     atom    2 type  1   force =     0.00000000    0.00000000    0.00000000
     The SCF correction term to forces
     atom    1 type  1   force =    -0.00043729   -0.00136214    0.00103198
     atom    2 type  1   force =     0.00043713    0.00136207   -0.00103181

     Total force =     0.004165     Total SCF correction =     0.002495
     SCF correction compared to forces is large: reduce conv_thr to get better values


     Computing stress (Cartesian axis) and pressure

          total   stress  (Ry/bohr**3)                   (kbar)     P=      129.65
   0.00082831   0.00000557   0.00018312          121.85        0.82       26.94
   0.00000557   0.00114748  -0.00013651            0.82      168.80      -20.08
   0.00018312  -0.00013651   0.00066826           26.94      -20.08       98.30

     kinetic stress (kbar)   3928.83     -2.25     21.26
                               -2.25   3933.88    -16.01
                               21.26    -16.01   3927.90

     local   stress (kbar)   -664.27    -12.10    -53.49
                              -12.10  -1209.11     36.80
                              -53.49     36.80   -409.52

     nonloc. stress (kbar)   4323.13      1.98     13.90
                                1.98   4454.37    -13.54
                               13.90    -13.54   4304.07

     hartree stress (kbar)     18.87      0.11      0.12
                                0.11     24.59      1.57
                                0.12      1.57      3.82

     exc-cor stress (kbar)  -1343.92      0.00      0.00
                                0.00  -1343.92      0.00
                                0.00      0.00  -1343.92

     corecor stress (kbar)      0.00      0.00      0.00
                                0.00      0.00      0.00
                                0.00      0.00      0.00

     ewald   stress (kbar)  -6140.80     13.08     45.14
                               13.08  -5691.00    -28.90
                               45.14    -28.90  -6384.05

     hubbard stress (kbar)      0.00      0.00      0.00
                                0.00      0.00      0.00
                                0.00      0.00      0.00

     DFT-D   stress (kbar)      0.00      0.00      0.00
                                0.00      0.00      0.00
                                0.00      0.00      0.00

     XDM     stress (kbar)      0.00      0.00      0.00
                                0.00      0.00      0.00
                                0.00      0.00      0.00

     dft-nl  stress (kbar)      0.00      0.00      0.00
                                0.00      0.00      0.00
                                0.00      0.00      0.00

     TS-vdW  stress (kbar)      0.00      0.00      0.00
                                0.00      0.00      0.00
                                0.00      0.00      0.00

     MDB     stress (kbar)      0.00      0.00      0.00
                                0.00      0.00      0.00
                                0.00      0.00      0.00

     3D-RISM stress (kbar)      0.00      0.00      0.00
                                0.00      0.00      0.00
                                0.00      0.00      0.00


     Writing all to output data dir ../tmp/Si/Si.save/ :
     XML data file, charge density, pseudopotentials, collected wavefunctions

     init_run     :      1.79s CPU      1.84s WALL (       1 calls)
     electrons    :      9.95s CPU     10.29s WALL (       1 calls)
     forces       :      0.12s CPU      0.13s WALL (       1 calls)
     stress       :      1.54s CPU      1.55s WALL (       1 calls)

     Called by init_run:
     wfcinit      :      1.47s CPU      1.52s WALL (       1 calls)
     wfcinit:atom :      0.06s CPU      0.06s WALL (     512 calls)
     wfcinit:wfcr :      1.18s CPU      1.21s WALL (     512 calls)
     potinit      :      0.01s CPU      0.01s WALL (       1 calls)
     hinit0       :      0.27s CPU      0.27s WALL (       1 calls)

     Called by electrons:
     c_bands      :      8.80s CPU      9.10s WALL (       2 calls)
     sum_band     :      1.14s CPU      1.18s WALL (       2 calls)
     v_of_rho     :      0.00s CPU      0.00s WALL (       2 calls)
     v_h          :      0.00s CPU      0.00s WALL (       2 calls)
     v_xc         :      0.00s CPU      0.00s WALL (       2 calls)
     mix_rho      :      0.00s CPU      0.00s WALL (       2 calls)

     Called by c_bands:
     init_us_2    :      0.39s CPU      0.40s WALL (    3584 calls)
     cegterg      :      8.59s CPU      8.88s WALL (    1024 calls)

     Called by sum_band:
     sum_band:wei :      0.00s CPU      0.00s WALL (       2 calls)
     sum_band:loo :      1.14s CPU      1.18s WALL (       2 calls)
     sum_band:buf :      0.01s CPU      0.01s WALL (    1024 calls)
     sum_band:ini :      0.12s CPU      0.12s WALL (    1024 calls)

     Called by *egterg:
     cdiaghg      :      0.45s CPU      0.46s WALL (    4782 calls)
     cegterg:over :      0.22s CPU      0.22s WALL (    4270 calls)
     cegterg:upda :      0.18s CPU      0.18s WALL (    4270 calls)
     cegterg:last :      0.19s CPU      0.20s WALL (    3073 calls)
     h_psi        :      8.49s CPU      8.78s WALL (    5806 calls)
     g_psi        :      0.07s CPU      0.08s WALL (    4270 calls)

     Called by h_psi:
     h_psi:calbec :      0.13s CPU      0.13s WALL (    5806 calls)
     vloc_psi     :      8.16s CPU      8.44s WALL (    5806 calls)
     add_vuspsi   :      0.13s CPU      0.13s WALL (    5806 calls)

     General routines
     calbec       :      0.17s CPU      0.18s WALL (    8366 calls)
     fft          :      0.25s CPU      0.25s WALL (      11 calls)
     ffts         :      0.00s CPU      0.00s WALL (       2 calls)
     fftw         :      7.68s CPU      7.95s WALL (   73700 calls)


     PWSCF        :     13.49s CPU     13.96s WALL


   This run was terminated on:  18:58:50   6May2024            

=------------------------------------------------------------------------------=
   JOB DONE.
=------------------------------------------------------------------------------=
