
     Program PWSCF v.7.3.1 starts on  6May2024 at 18:58:58 

     This program is part of the open-source Quantum ESPRESSO suite
     for quantum simulation of materials; please cite
         "P. Giannozzi et al., J. Phys.:Condens. Matter 21 395502 (2009);
         "P. Giannozzi et al., J. Phys.:Condens. Matter 29 465901 (2017);
         "P. Giannozzi et al., J. Chem. Phys. 152 154105 (2020);
          URL http://www.quantum-espresso.org", 
     in publications or presentations arising from this work. More details at
     http://www.quantum-espresso.org/quote

     Serial version
     1930 MiB available memory on the printing compute node when the environment starts

     Reading input from Si2.pw.in

     Current dimensions of program PWSCF are:
     Max number of different atomic species (ntypx) = 10
     Max number of k-points (npk) =  40000
     Max angular momentum in pseudopotentials (lmaxx) =  4


     G-vector sticks info
     --------------------
     sticks:   dense  smooth     PW     G-vecs:    dense   smooth      PW
     Sum         317     317    113                 7379     7379    1535

     Using Slab Decomposition



     bravais-lattice index     =            0
     lattice parameter (alat)  =       5.2875  a.u.
     unit-cell volume          =     215.2645 (a.u.)^3
     number of atoms/cell      =            2
     number of atomic types    =            1
     number of electrons       =         8.00
     number of Kohn-Sham states=            8
     kinetic-energy cutoff     =      40.0000  Ry
     charge density cutoff     =     160.0000  Ry
     scf convergence threshold =      2.0E-02
     mixing beta               =       0.1000
     number of iterations used =            8  plain     mixing
     Exchange-correlation=  SLA  PZ   NOGX NOGC
                           (   1   1   0   0   0   0   0)

     celldm(1)=   5.287509  celldm(2)=   0.000000  celldm(3)=   0.000000
     celldm(4)=   0.000000  celldm(5)=   0.000000  celldm(6)=   0.000000

     crystal axes: (cart. coord. in units of alat)
               a(1) = (   0.999182   0.014924   0.037582 )  
               a(2) = (  -0.417876   0.873851   0.011965 )  
               a(3) = (   0.062911  -0.070585   1.656063 )  

     reciprocal axes: (cart. coord. in units 2 pi/alat)
               b(1) = (  0.994371  0.475748 -0.017497 )  
               b(2) = ( -0.018794  1.134701  0.049078 )  
               b(3) = ( -0.022430 -0.018994  0.603884 )  


     PseudoPot. # 1 for Si read from file:
     ../pseudo/Si.pz-vbc.UPF
     MD5 check sum: 6dfa03ddd5817404712e03e4d12deb78
     Pseudo is Norm-conserving, Zval =  4.0
     Generated by new atomic code, or converted to UPF format
     Using radial grid of  431 points,  2 beta functions with: 
                l(1) =   0
                l(2) =   1

     atomic species   valence    mass     pseudopotential
     Si                4.00    28.08600     Si( 1.00)

     No symmetry found


                                    s                        frac. trans.

      isym =  1     identity                                     

 cryst.   s( 1) = (     1          0          0      )
                  (     0          1          0      )
                  (     0          0          1      )

 cart.    s( 1) = (  1.0000000 -0.0000000  0.0000000 )
                  ( -0.0000000  1.0000000  0.0000000 )
                  (  0.0000000  0.0000000  1.0000000 )


   Cartesian axes

     site n.     atom                  positions (alat units)
         1        Si     tau(   1) = (   0.0702046   0.5698953   0.4345197  )
         2        Si     tau(   2) = (   0.5740124   0.2482936   1.2710905  )

   Crystallographic axes

     site n.     atom                  positions (cryst. coord.)
         1        Si     tau(   1) = (  0.3333333  0.6666667  0.2500000  )
         2        Si     tau(   2) = (  0.6666667  0.3333333  0.7500000  )

     number of k points=   512  Fermi-Dirac smearing, width (Ry)=  0.0019
                       cart. coord. in units 2pi/alat
        k(    1) = (   0.0000000   0.0000000   0.0000000), wk =   0.0039062
        k(    2) = (  -0.0028038  -0.0023743   0.0754855), wk =   0.0039062
        k(    3) = (  -0.0056075  -0.0047486   0.1509710), wk =   0.0039062
        k(    4) = (  -0.0084113  -0.0071229   0.2264565), wk =   0.0039062
        k(    5) = (   0.0112150   0.0094972  -0.3019420), wk =   0.0039062
        k(    6) = (   0.0084113   0.0071229  -0.2264565), wk =   0.0039062
        k(    7) = (   0.0056075   0.0047486  -0.1509710), wk =   0.0039062
        k(    8) = (   0.0028038   0.0023743  -0.0754855), wk =   0.0039062
        k(    9) = (  -0.0023492   0.1418377   0.0061347), wk =   0.0039062
        k(   10) = (  -0.0051530   0.1394634   0.0816202), wk =   0.0039062
        k(   11) = (  -0.0079567   0.1370891   0.1571057), wk =   0.0039062
        k(   12) = (  -0.0107605   0.1347148   0.2325912), wk =   0.0039062
        k(   13) = (   0.0088659   0.1513349  -0.2958074), wk =   0.0039062
        k(   14) = (   0.0060621   0.1489606  -0.2203218), wk =   0.0039062
        k(   15) = (   0.0032583   0.1465863  -0.1448363), wk =   0.0039062
        k(   16) = (   0.0004546   0.1442120  -0.0693508), wk =   0.0039062
        k(   17) = (  -0.0046984   0.2836753   0.0122694), wk =   0.0039062
        k(   18) = (  -0.0075021   0.2813010   0.0877549), wk =   0.0039062
        k(   19) = (  -0.0103059   0.2789267   0.1632404), wk =   0.0039062
        k(   20) = (  -0.0131097   0.2765524   0.2387259), wk =   0.0039062
        k(   21) = (   0.0065167   0.2931725  -0.2896727), wk =   0.0039062
        k(   22) = (   0.0037129   0.2907982  -0.2141872), wk =   0.0039062
        k(   23) = (   0.0009091   0.2884239  -0.1387016), wk =   0.0039062
        k(   24) = (  -0.0018946   0.2860496  -0.0632161), wk =   0.0039062
        k(   25) = (  -0.0070476   0.4255130   0.0184041), wk =   0.0039062
        k(   26) = (  -0.0098513   0.4231387   0.0938896), wk =   0.0039062
        k(   27) = (  -0.0126551   0.4207644   0.1693751), wk =   0.0039062
        k(   28) = (  -0.0154589   0.4183901   0.2448606), wk =   0.0039062
        k(   29) = (   0.0041675   0.4350102  -0.2835380), wk =   0.0039062
        k(   30) = (   0.0013637   0.4326359  -0.2080525), wk =   0.0039062
        k(   31) = (  -0.0014400   0.4302616  -0.1325670), wk =   0.0039062
        k(   32) = (  -0.0042438   0.4278873  -0.0570814), wk =   0.0039062
        k(   33) = (   0.0093968  -0.5673507  -0.0245388), wk =   0.0039062
        k(   34) = (   0.0065930  -0.5697250   0.0509468), wk =   0.0039062
        k(   35) = (   0.0037892  -0.5720993   0.1264323), wk =   0.0039062
        k(   36) = (   0.0009855  -0.5744736   0.2019178), wk =   0.0039062
        k(   37) = (   0.0206118  -0.5578535  -0.3264808), wk =   0.0039062
        k(   38) = (   0.0178080  -0.5602278  -0.2509953), wk =   0.0039062
        k(   39) = (   0.0150043  -0.5626021  -0.1755098), wk =   0.0039062
        k(   40) = (   0.0122005  -0.5649764  -0.1000243), wk =   0.0039062
        k(   41) = (   0.0070476  -0.4255130  -0.0184041), wk =   0.0039062
        k(   42) = (   0.0042438  -0.4278873   0.0570814), wk =   0.0039062
        k(   43) = (   0.0014400  -0.4302616   0.1325670), wk =   0.0039062
        k(   44) = (  -0.0013637  -0.4326359   0.2080525), wk =   0.0039062
        k(   45) = (   0.0182626  -0.4160158  -0.3203461), wk =   0.0039062
        k(   46) = (   0.0154589  -0.4183901  -0.2448606), wk =   0.0039062
        k(   47) = (   0.0126551  -0.4207644  -0.1693751), wk =   0.0039062
        k(   48) = (   0.0098513  -0.4231387  -0.0938896), wk =   0.0039062
        k(   49) = (   0.0046984  -0.2836753  -0.0122694), wk =   0.0039062
        k(   50) = (   0.0018946  -0.2860496   0.0632161), wk =   0.0039062
        k(   51) = (  -0.0009091  -0.2884239   0.1387016), wk =   0.0039062
        k(   52) = (  -0.0037129  -0.2907982   0.2141872), wk =   0.0039062
        k(   53) = (   0.0159134  -0.2741781  -0.3142114), wk =   0.0039062
        k(   54) = (   0.0131097  -0.2765524  -0.2387259), wk =   0.0039062
        k(   55) = (   0.0103059  -0.2789267  -0.1632404), wk =   0.0039062
        k(   56) = (   0.0075021  -0.2813010  -0.0877549), wk =   0.0039062
        k(   57) = (   0.0023492  -0.1418377  -0.0061347), wk =   0.0039062
        k(   58) = (  -0.0004546  -0.1442120   0.0693508), wk =   0.0039062
        k(   59) = (  -0.0032583  -0.1465863   0.1448363), wk =   0.0039062
        k(   60) = (  -0.0060621  -0.1489606   0.2203218), wk =   0.0039062
        k(   61) = (   0.0135642  -0.1323405  -0.3080767), wk =   0.0039062
        k(   62) = (   0.0107605  -0.1347148  -0.2325912), wk =   0.0039062
        k(   63) = (   0.0079567  -0.1370891  -0.1571057), wk =   0.0039062
        k(   64) = (   0.0051530  -0.1394634  -0.0816202), wk =   0.0039062
        k(   65) = (   0.1242964   0.0594685  -0.0021871), wk =   0.0039062
        k(   66) = (   0.1214926   0.0570942   0.0732984), wk =   0.0039062
        k(   67) = (   0.1186889   0.0547199   0.1487839), wk =   0.0039062
        k(   68) = (   0.1158851   0.0523456   0.2242694), wk =   0.0039062
        k(   69) = (   0.1355114   0.0689657  -0.3041291), wk =   0.0039062
        k(   70) = (   0.1327077   0.0665914  -0.2286436), wk =   0.0039062
        k(   71) = (   0.1299039   0.0642171  -0.1531581), wk =   0.0039062
        k(   72) = (   0.1271001   0.0618428  -0.0776726), wk =   0.0039062
        k(   73) = (   0.1219472   0.2013062   0.0039476), wk =   0.0039062
        k(   74) = (   0.1191434   0.1989319   0.0794331), wk =   0.0039062
        k(   75) = (   0.1163397   0.1965576   0.1549186), wk =   0.0039062
        k(   76) = (   0.1135359   0.1941833   0.2304041), wk =   0.0039062
        k(   77) = (   0.1331622   0.2108034  -0.2979944), wk =   0.0039062
        k(   78) = (   0.1303585   0.2084291  -0.2225089), wk =   0.0039062
        k(   79) = (   0.1275547   0.2060548  -0.1470234), wk =   0.0039062
        k(   80) = (   0.1247509   0.2036805  -0.0715379), wk =   0.0039062
        k(   81) = (   0.1195980   0.3431438   0.0100823), wk =   0.0039062
        k(   82) = (   0.1167942   0.3407696   0.0855678), wk =   0.0039062
        k(   83) = (   0.1139905   0.3383953   0.1610533), wk =   0.0039062
        k(   84) = (   0.1111867   0.3360210   0.2365388), wk =   0.0039062
        k(   85) = (   0.1308130   0.3526410  -0.2918598), wk =   0.0039062
        k(   86) = (   0.1280093   0.3502667  -0.2163742), wk =   0.0039062
        k(   87) = (   0.1252055   0.3478924  -0.1408887), wk =   0.0039062
        k(   88) = (   0.1224018   0.3455181  -0.0654032), wk =   0.0039062
        k(   89) = (   0.1172488   0.4849815   0.0162170), wk =   0.0039062
        k(   90) = (   0.1144450   0.4826072   0.0917025), wk =   0.0039062
        k(   91) = (   0.1116413   0.4802329   0.1671880), wk =   0.0039062
        k(   92) = (   0.1088375   0.4778586   0.2426735), wk =   0.0039062
        k(   93) = (   0.1284639   0.4944787  -0.2857251), wk =   0.0039062
        k(   94) = (   0.1256601   0.4921044  -0.2102396), wk =   0.0039062
        k(   95) = (   0.1228563   0.4897301  -0.1347540), wk =   0.0039062
        k(   96) = (   0.1200526   0.4873558  -0.0592685), wk =   0.0039062
        k(   97) = (   0.1336931  -0.5078822  -0.0267258), wk =   0.0039062
        k(   98) = (   0.1308894  -0.5102565   0.0487597), wk =   0.0039062
        k(   99) = (   0.1280856  -0.5126308   0.1242452), wk =   0.0039062
        k(  100) = (   0.1252819  -0.5150051   0.1997307), wk =   0.0039062
        k(  101) = (   0.1449082  -0.4983850  -0.3286679), wk =   0.0039062
        k(  102) = (   0.1421044  -0.5007593  -0.2531824), wk =   0.0039062
        k(  103) = (   0.1393007  -0.5031336  -0.1776969), wk =   0.0039062
        k(  104) = (   0.1364969  -0.5055079  -0.1022114), wk =   0.0039062
        k(  105) = (   0.1313439  -0.3660445  -0.0205912), wk =   0.0039062
        k(  106) = (   0.1285402  -0.3684188   0.0548944), wk =   0.0039062
        k(  107) = (   0.1257364  -0.3707931   0.1303799), wk =   0.0039062
        k(  108) = (   0.1229327  -0.3731674   0.2058654), wk =   0.0039062
        k(  109) = (   0.1425590  -0.3565473  -0.3225332), wk =   0.0039062
        k(  110) = (   0.1397552  -0.3589216  -0.2470477), wk =   0.0039062
        k(  111) = (   0.1369515  -0.3612959  -0.1715622), wk =   0.0039062
        k(  112) = (   0.1341477  -0.3636702  -0.0960767), wk =   0.0039062
        k(  113) = (   0.1289948  -0.2242068  -0.0144565), wk =   0.0039062
        k(  114) = (   0.1261910  -0.2265811   0.0610290), wk =   0.0039062
        k(  115) = (   0.1233872  -0.2289554   0.1365146), wk =   0.0039062
        k(  116) = (   0.1205835  -0.2313297   0.2120001), wk =   0.0039062
        k(  117) = (   0.1402098  -0.2147096  -0.3163985), wk =   0.0039062
        k(  118) = (   0.1374060  -0.2170839  -0.2409130), wk =   0.0039062
        k(  119) = (   0.1346023  -0.2194582  -0.1654275), wk =   0.0039062
        k(  120) = (   0.1317985  -0.2218325  -0.0899420), wk =   0.0039062
        k(  121) = (   0.1266456  -0.0823692  -0.0083218), wk =   0.0039062
        k(  122) = (   0.1238418  -0.0847435   0.0671637), wk =   0.0039062
        k(  123) = (   0.1210380  -0.0871178   0.1426492), wk =   0.0039062
        k(  124) = (   0.1182343  -0.0894921   0.2181348), wk =   0.0039062
        k(  125) = (   0.1378606  -0.0728720  -0.3102638), wk =   0.0039062
        k(  126) = (   0.1350569  -0.0752463  -0.2347783), wk =   0.0039062
        k(  127) = (   0.1322531  -0.0776206  -0.1592928), wk =   0.0039062
        k(  128) = (   0.1294493  -0.0799949  -0.0838073), wk =   0.0039062
        k(  129) = (   0.2485928   0.1189370  -0.0043742), wk =   0.0039062
        k(  130) = (   0.2457890   0.1165627   0.0711113), wk =   0.0039062
        k(  131) = (   0.2429852   0.1141884   0.1465968), wk =   0.0039062
        k(  132) = (   0.2401815   0.1118141   0.2220824), wk =   0.0039062
        k(  133) = (   0.2598078   0.1284342  -0.3063162), wk =   0.0039062
        k(  134) = (   0.2570040   0.1260599  -0.2308307), wk =   0.0039062
        k(  135) = (   0.2542003   0.1236856  -0.1553452), wk =   0.0039062
        k(  136) = (   0.2513965   0.1213113  -0.0798597), wk =   0.0039062
        k(  137) = (   0.2462436   0.2607747   0.0017605), wk =   0.0039062
        k(  138) = (   0.2434398   0.2584004   0.0772460), wk =   0.0039062
        k(  139) = (   0.2406360   0.2560261   0.1527315), wk =   0.0039062
        k(  140) = (   0.2378323   0.2536518   0.2282170), wk =   0.0039062
        k(  141) = (   0.2574586   0.2702719  -0.3001815), wk =   0.0039062
        k(  142) = (   0.2546549   0.2678976  -0.2246960), wk =   0.0039062
        k(  143) = (   0.2518511   0.2655233  -0.1492105), wk =   0.0039062
        k(  144) = (   0.2490473   0.2631490  -0.0737250), wk =   0.0039062
        k(  145) = (   0.2438944   0.4026124   0.0078952), wk =   0.0039062
        k(  146) = (   0.2410906   0.4002381   0.0833807), wk =   0.0039062
        k(  147) = (   0.2382869   0.3978638   0.1588662), wk =   0.0039062
        k(  148) = (   0.2354831   0.3954895   0.2343517), wk =   0.0039062
        k(  149) = (   0.2551094   0.4121096  -0.2940468), wk =   0.0039062
        k(  150) = (   0.2523057   0.4097353  -0.2185613), wk =   0.0039062
        k(  151) = (   0.2495019   0.4073610  -0.1430758), wk =   0.0039062
        k(  152) = (   0.2466981   0.4049867  -0.0675903), wk =   0.0039062
        k(  153) = (   0.2415452   0.5444500   0.0140299), wk =   0.0039062
        k(  154) = (   0.2387414   0.5420757   0.0895154), wk =   0.0039062
        k(  155) = (   0.2359377   0.5397014   0.1650009), wk =   0.0039062
        k(  156) = (   0.2331339   0.5373271   0.2404864), wk =   0.0039062
        k(  157) = (   0.2527602   0.5539472  -0.2879121), wk =   0.0039062
        k(  158) = (   0.2499565   0.5515729  -0.2124266), wk =   0.0039062
        k(  159) = (   0.2471527   0.5491986  -0.1369411), wk =   0.0039062
        k(  160) = (   0.2443489   0.5468243  -0.0614556), wk =   0.0039062
        k(  161) = (   0.2579895  -0.4484136  -0.0289129), wk =   0.0039062
        k(  162) = (   0.2551858  -0.4507879   0.0465726), wk =   0.0039062
        k(  163) = (   0.2523820  -0.4531622   0.1220581), wk =   0.0039062
        k(  164) = (   0.2495782  -0.4555365   0.1975436), wk =   0.0039062
        k(  165) = (   0.2692046  -0.4389165  -0.3308550), wk =   0.0039062
        k(  166) = (   0.2664008  -0.4412908  -0.2553695), wk =   0.0039062
        k(  167) = (   0.2635970  -0.4436651  -0.1798839), wk =   0.0039062
        k(  168) = (   0.2607933  -0.4460393  -0.1043984), wk =   0.0039062
        k(  169) = (   0.2556403  -0.3065760  -0.0227782), wk =   0.0039062
        k(  170) = (   0.2528366  -0.3089503   0.0527073), wk =   0.0039062
        k(  171) = (   0.2500328  -0.3113246   0.1281928), wk =   0.0039062
        k(  172) = (   0.2472290  -0.3136989   0.2036783), wk =   0.0039062
        k(  173) = (   0.2668554  -0.2970788  -0.3247203), wk =   0.0039062
        k(  174) = (   0.2640516  -0.2994531  -0.2492348), wk =   0.0039062
        k(  175) = (   0.2612479  -0.3018274  -0.1737493), wk =   0.0039062
        k(  176) = (   0.2584441  -0.3042017  -0.0982638), wk =   0.0039062
        k(  177) = (   0.2532911  -0.1647383  -0.0166436), wk =   0.0039062
        k(  178) = (   0.2504874  -0.1671126   0.0588420), wk =   0.0039062
        k(  179) = (   0.2476836  -0.1694869   0.1343275), wk =   0.0039062
        k(  180) = (   0.2448799  -0.1718612   0.2098130), wk =   0.0039062
        k(  181) = (   0.2645062  -0.1552411  -0.3185856), wk =   0.0039062
        k(  182) = (   0.2617024  -0.1576154  -0.2431001), wk =   0.0039062
        k(  183) = (   0.2588987  -0.1599897  -0.1676146), wk =   0.0039062
        k(  184) = (   0.2560949  -0.1623640  -0.0921291), wk =   0.0039062
        k(  185) = (   0.2509419  -0.0229006  -0.0105089), wk =   0.0039062
        k(  186) = (   0.2481382  -0.0252749   0.0649766), wk =   0.0039062
        k(  187) = (   0.2453344  -0.0276492   0.1404622), wk =   0.0039062
        k(  188) = (   0.2425307  -0.0300235   0.2159477), wk =   0.0039062
        k(  189) = (   0.2621570  -0.0134034  -0.3124509), wk =   0.0039062
        k(  190) = (   0.2593532  -0.0157777  -0.2369654), wk =   0.0039062
        k(  191) = (   0.2565495  -0.0181520  -0.1614799), wk =   0.0039062
        k(  192) = (   0.2537457  -0.0205263  -0.0859944), wk =   0.0039062
        k(  193) = (   0.3728891   0.1784055  -0.0065613), wk =   0.0039062
        k(  194) = (   0.3700854   0.1760312   0.0689243), wk =   0.0039062
        k(  195) = (   0.3672816   0.1736569   0.1444098), wk =   0.0039062
        k(  196) = (   0.3644778   0.1712826   0.2198953), wk =   0.0039062
        k(  197) = (   0.3841042   0.1879027  -0.3085033), wk =   0.0039062
        k(  198) = (   0.3813004   0.1855284  -0.2330178), wk =   0.0039062
        k(  199) = (   0.3784967   0.1831541  -0.1575323), wk =   0.0039062
        k(  200) = (   0.3756929   0.1807798  -0.0820468), wk =   0.0039062
        k(  201) = (   0.3705399   0.3202432  -0.0004266), wk =   0.0039062
        k(  202) = (   0.3677362   0.3178689   0.0750589), wk =   0.0039062
        k(  203) = (   0.3649324   0.3154946   0.1505444), wk =   0.0039062
        k(  204) = (   0.3621287   0.3131203   0.2260300), wk =   0.0039062
        k(  205) = (   0.3817550   0.3297404  -0.3023686), wk =   0.0039062
        k(  206) = (   0.3789512   0.3273661  -0.2268831), wk =   0.0039062
        k(  207) = (   0.3761475   0.3249918  -0.1513976), wk =   0.0039062
        k(  208) = (   0.3733437   0.3226175  -0.0759121), wk =   0.0039062
        k(  209) = (   0.3681908   0.4620809   0.0057081), wk =   0.0039062
        k(  210) = (   0.3653870   0.4597066   0.0811936), wk =   0.0039062
        k(  211) = (   0.3625832   0.4573323   0.1566791), wk =   0.0039062
        k(  212) = (   0.3597795   0.4549580   0.2321646), wk =   0.0039062
        k(  213) = (   0.3794058   0.4715781  -0.2962339), wk =   0.0039062
        k(  214) = (   0.3766020   0.4692038  -0.2207484), wk =   0.0039062
        k(  215) = (   0.3737983   0.4668295  -0.1452629), wk =   0.0039062
        k(  216) = (   0.3709945   0.4644552  -0.0697774), wk =   0.0039062
        k(  217) = (   0.3658416   0.6039185   0.0118428), wk =   0.0039062
        k(  218) = (   0.3630378   0.6015442   0.0873283), wk =   0.0039062
        k(  219) = (   0.3602340   0.5991699   0.1628138), wk =   0.0039062
        k(  220) = (   0.3574303   0.5967956   0.2382993), wk =   0.0039062
        k(  221) = (   0.3770566   0.6134157  -0.2900992), wk =   0.0039062
        k(  222) = (   0.3742528   0.6110414  -0.2146137), wk =   0.0039062
        k(  223) = (   0.3714491   0.6086671  -0.1391282), wk =   0.0039062
        k(  224) = (   0.3686453   0.6062928  -0.0636427), wk =   0.0039062
        k(  225) = (   0.3822859  -0.3889451  -0.0311000), wk =   0.0039062
        k(  226) = (   0.3794821  -0.3913194   0.0443855), wk =   0.0039062
        k(  227) = (   0.3766784  -0.3936937   0.1198710), wk =   0.0039062
        k(  228) = (   0.3738746  -0.3960680   0.1953565), wk =   0.0039062
        k(  229) = (   0.3935009  -0.3794479  -0.3330421), wk =   0.0039062
        k(  230) = (   0.3906972  -0.3818222  -0.2575565), wk =   0.0039062
        k(  231) = (   0.3878934  -0.3841965  -0.1820710), wk =   0.0039062
        k(  232) = (   0.3850897  -0.3865708  -0.1065855), wk =   0.0039062
        k(  233) = (   0.3799367  -0.2471075  -0.0249653), wk =   0.0039062
        k(  234) = (   0.3771329  -0.2494818   0.0505202), wk =   0.0039062
        k(  235) = (   0.3743292  -0.2518561   0.1260057), wk =   0.0039062
        k(  236) = (   0.3715254  -0.2542304   0.2014912), wk =   0.0039062
        k(  237) = (   0.3911518  -0.2376103  -0.3269074), wk =   0.0039062
        k(  238) = (   0.3883480  -0.2399846  -0.2514219), wk =   0.0039062
        k(  239) = (   0.3855442  -0.2423589  -0.1759363), wk =   0.0039062
        k(  240) = (   0.3827405  -0.2447332  -0.1004508), wk =   0.0039062
        k(  241) = (   0.3775875  -0.1052698  -0.0188306), wk =   0.0039062
        k(  242) = (   0.3747838  -0.1076441   0.0566549), wk =   0.0039062
        k(  243) = (   0.3719800  -0.1100184   0.1321404), wk =   0.0039062
        k(  244) = (   0.3691762  -0.1123927   0.2076259), wk =   0.0039062
        k(  245) = (   0.3888026  -0.0957726  -0.3207727), wk =   0.0039062
        k(  246) = (   0.3859988  -0.0981469  -0.2452872), wk =   0.0039062
        k(  247) = (   0.3831950  -0.1005212  -0.1698017), wk =   0.0039062
        k(  248) = (   0.3803913  -0.1028955  -0.0943161), wk =   0.0039062
        k(  249) = (   0.3752383   0.0365679  -0.0126959), wk =   0.0039062
        k(  250) = (   0.3724346   0.0341936   0.0627896), wk =   0.0039062
        k(  251) = (   0.3696308   0.0318193   0.1382751), wk =   0.0039062
        k(  252) = (   0.3668270   0.0294450   0.2137606), wk =   0.0039062
        k(  253) = (   0.3864534   0.0460651  -0.3146380), wk =   0.0039062
        k(  254) = (   0.3836496   0.0436908  -0.2391525), wk =   0.0039062
        k(  255) = (   0.3808458   0.0413165  -0.1636670), wk =   0.0039062
        k(  256) = (   0.3780421   0.0389422  -0.0881815), wk =   0.0039062
        k(  257) = (  -0.4971855  -0.2378741   0.0087483), wk =   0.0039062
        k(  258) = (  -0.4999893  -0.2402483   0.0842339), wk =   0.0039062
        k(  259) = (  -0.5027930  -0.2426226   0.1597194), wk =   0.0039062
        k(  260) = (  -0.5055968  -0.2449969   0.2352049), wk =   0.0039062
        k(  261) = (  -0.4859705  -0.2283769  -0.2931937), wk =   0.0039062
        k(  262) = (  -0.4887742  -0.2307512  -0.2177082), wk =   0.0039062
        k(  263) = (  -0.4915780  -0.2331255  -0.1422227), wk =   0.0039062
        k(  264) = (  -0.4943818  -0.2354998  -0.0667372), wk =   0.0039062
        k(  265) = (  -0.4995347  -0.0960364   0.0148830), wk =   0.0039062
        k(  266) = (  -0.5023385  -0.0984107   0.0903685), wk =   0.0039062
        k(  267) = (  -0.5051422  -0.1007850   0.1658541), wk =   0.0039062
        k(  268) = (  -0.5079460  -0.1031593   0.2413396), wk =   0.0039062
        k(  269) = (  -0.4883197  -0.0865392  -0.2870590), wk =   0.0039062
        k(  270) = (  -0.4911234  -0.0889135  -0.2115735), wk =   0.0039062
        k(  271) = (  -0.4939272  -0.0912878  -0.1360880), wk =   0.0039062
        k(  272) = (  -0.4967309  -0.0936621  -0.0606025), wk =   0.0039062
        k(  273) = (  -0.5018839   0.0458013   0.0210177), wk =   0.0039062
        k(  274) = (  -0.5046877   0.0434270   0.0965032), wk =   0.0039062
        k(  275) = (  -0.5074914   0.0410527   0.1719887), wk =   0.0039062
        k(  276) = (  -0.5102952   0.0386784   0.2474743), wk =   0.0039062
        k(  277) = (  -0.4906688   0.0552985  -0.2809243), wk =   0.0039062
        k(  278) = (  -0.4934726   0.0529242  -0.2054388), wk =   0.0039062
        k(  279) = (  -0.4962764   0.0505499  -0.1299533), wk =   0.0039062
        k(  280) = (  -0.4990801   0.0481756  -0.0544678), wk =   0.0039062
        k(  281) = (  -0.5042331   0.1876390   0.0271524), wk =   0.0039062
        k(  282) = (  -0.5070368   0.1852647   0.1026379), wk =   0.0039062
        k(  283) = (  -0.5098406   0.1828904   0.1781234), wk =   0.0039062
        k(  284) = (  -0.5126444   0.1805161   0.2536089), wk =   0.0039062
        k(  285) = (  -0.4930180   0.1971361  -0.2747896), wk =   0.0039062
        k(  286) = (  -0.4958218   0.1947618  -0.1993041), wk =   0.0039062
        k(  287) = (  -0.4986256   0.1923876  -0.1238186), wk =   0.0039062
        k(  288) = (  -0.5014293   0.1900133  -0.0483331), wk =   0.0039062
        k(  289) = (  -0.4877888  -0.8052247  -0.0157904), wk =   0.0039062
        k(  290) = (  -0.4905925  -0.8075990   0.0596951), wk =   0.0039062
        k(  291) = (  -0.4933963  -0.8099733   0.1351806), wk =   0.0039062
        k(  292) = (  -0.4962000  -0.8123476   0.2106661), wk =   0.0039062
        k(  293) = (  -0.4765737  -0.7957275  -0.3177325), wk =   0.0039062
        k(  294) = (  -0.4793775  -0.7981018  -0.2422469), wk =   0.0039062
        k(  295) = (  -0.4821812  -0.8004761  -0.1667614), wk =   0.0039062
        k(  296) = (  -0.4849850  -0.8028504  -0.0912759), wk =   0.0039062
        k(  297) = (  -0.4901379  -0.6633871  -0.0096557), wk =   0.0039062
        k(  298) = (  -0.4929417  -0.6657614   0.0658298), wk =   0.0039062
        k(  299) = (  -0.4957455  -0.6681357   0.1413153), wk =   0.0039062
        k(  300) = (  -0.4985492  -0.6705100   0.2168008), wk =   0.0039062
        k(  301) = (  -0.4789229  -0.6538899  -0.3115978), wk =   0.0039062
        k(  302) = (  -0.4817267  -0.6562642  -0.2361123), wk =   0.0039062
        k(  303) = (  -0.4845304  -0.6586385  -0.1606267), wk =   0.0039062
        k(  304) = (  -0.4873342  -0.6610128  -0.0851412), wk =   0.0039062
        k(  305) = (  -0.4924871  -0.5215494  -0.0035210), wk =   0.0039062
        k(  306) = (  -0.4952909  -0.5239237   0.0719645), wk =   0.0039062
        k(  307) = (  -0.4980947  -0.5262980   0.1474500), wk =   0.0039062
        k(  308) = (  -0.5008984  -0.5286723   0.2229355), wk =   0.0039062
        k(  309) = (  -0.4812721  -0.5120522  -0.3054631), wk =   0.0039062
        k(  310) = (  -0.4840758  -0.5144265  -0.2299776), wk =   0.0039062
        k(  311) = (  -0.4868796  -0.5168008  -0.1544921), wk =   0.0039062
        k(  312) = (  -0.4896834  -0.5191751  -0.0790065), wk =   0.0039062
        k(  313) = (  -0.4948363  -0.3797117   0.0026137), wk =   0.0039062
        k(  314) = (  -0.4976401  -0.3820860   0.0780992), wk =   0.0039062
        k(  315) = (  -0.5004438  -0.3844603   0.1535847), wk =   0.0039062
        k(  316) = (  -0.5032476  -0.3868346   0.2290702), wk =   0.0039062
        k(  317) = (  -0.4836213  -0.3702145  -0.2993284), wk =   0.0039062
        k(  318) = (  -0.4864250  -0.3725888  -0.2238429), wk =   0.0039062
        k(  319) = (  -0.4892288  -0.3749631  -0.1483574), wk =   0.0039062
        k(  320) = (  -0.4920326  -0.3773374  -0.0728719), wk =   0.0039062
        k(  321) = (  -0.3728891  -0.1784055   0.0065613), wk =   0.0039062
        k(  322) = (  -0.3756929  -0.1807798   0.0820468), wk =   0.0039062
        k(  323) = (  -0.3784967  -0.1831541   0.1575323), wk =   0.0039062
        k(  324) = (  -0.3813004  -0.1855284   0.2330178), wk =   0.0039062
        k(  325) = (  -0.3616741  -0.1689083  -0.2953808), wk =   0.0039062
        k(  326) = (  -0.3644778  -0.1712826  -0.2198953), wk =   0.0039062
        k(  327) = (  -0.3672816  -0.1736569  -0.1444098), wk =   0.0039062
        k(  328) = (  -0.3700854  -0.1760312  -0.0689243), wk =   0.0039062
        k(  329) = (  -0.3752383  -0.0365679   0.0126959), wk =   0.0039062
        k(  330) = (  -0.3780421  -0.0389422   0.0881815), wk =   0.0039062
        k(  331) = (  -0.3808458  -0.0413165   0.1636670), wk =   0.0039062
        k(  332) = (  -0.3836496  -0.0436908   0.2391525), wk =   0.0039062
        k(  333) = (  -0.3640233  -0.0270707  -0.2892461), wk =   0.0039062
        k(  334) = (  -0.3668270  -0.0294450  -0.2137606), wk =   0.0039062
        k(  335) = (  -0.3696308  -0.0318193  -0.1382751), wk =   0.0039062
        k(  336) = (  -0.3724346  -0.0341936  -0.0627896), wk =   0.0039062
        k(  337) = (  -0.3775875   0.1052698   0.0188306), wk =   0.0039062
        k(  338) = (  -0.3803913   0.1028955   0.0943161), wk =   0.0039062
        k(  339) = (  -0.3831950   0.1005212   0.1698017), wk =   0.0039062
        k(  340) = (  -0.3859988   0.0981469   0.2452872), wk =   0.0039062
        k(  341) = (  -0.3663725   0.1147670  -0.2831114), wk =   0.0039062
        k(  342) = (  -0.3691762   0.1123927  -0.2076259), wk =   0.0039062
        k(  343) = (  -0.3719800   0.1100184  -0.1321404), wk =   0.0039062
        k(  344) = (  -0.3747838   0.1076441  -0.0566549), wk =   0.0039062
        k(  345) = (  -0.3799367   0.2471075   0.0249653), wk =   0.0039062
        k(  346) = (  -0.3827405   0.2447332   0.1004508), wk =   0.0039062
        k(  347) = (  -0.3855442   0.2423589   0.1759363), wk =   0.0039062
        k(  348) = (  -0.3883480   0.2399846   0.2514219), wk =   0.0039062
        k(  349) = (  -0.3687217   0.2566047  -0.2769767), wk =   0.0039062
        k(  350) = (  -0.3715254   0.2542304  -0.2014912), wk =   0.0039062
        k(  351) = (  -0.3743292   0.2518561  -0.1260057), wk =   0.0039062
        k(  352) = (  -0.3771329   0.2494818  -0.0505202), wk =   0.0039062
        k(  353) = (  -0.3634924  -0.7457562  -0.0179775), wk =   0.0039062
        k(  354) = (  -0.3662961  -0.7481305   0.0575080), wk =   0.0039062
        k(  355) = (  -0.3690999  -0.7505048   0.1329935), wk =   0.0039062
        k(  356) = (  -0.3719037  -0.7528791   0.2084790), wk =   0.0039062
        k(  357) = (  -0.3522773  -0.7362590  -0.3199195), wk =   0.0039062
        k(  358) = (  -0.3550811  -0.7386333  -0.2444340), wk =   0.0039062
        k(  359) = (  -0.3578848  -0.7410076  -0.1689485), wk =   0.0039062
        k(  360) = (  -0.3606886  -0.7433819  -0.0934630), wk =   0.0039062
        k(  361) = (  -0.3658416  -0.6039185  -0.0118428), wk =   0.0039062
        k(  362) = (  -0.3686453  -0.6062928   0.0636427), wk =   0.0039062
        k(  363) = (  -0.3714491  -0.6086671   0.1391282), wk =   0.0039062
        k(  364) = (  -0.3742528  -0.6110414   0.2146137), wk =   0.0039062
        k(  365) = (  -0.3546265  -0.5944214  -0.3137848), wk =   0.0039062
        k(  366) = (  -0.3574303  -0.5967956  -0.2382993), wk =   0.0039062
        k(  367) = (  -0.3602340  -0.5991699  -0.1628138), wk =   0.0039062
        k(  368) = (  -0.3630378  -0.6015442  -0.0873283), wk =   0.0039062
        k(  369) = (  -0.3681908  -0.4620809  -0.0057081), wk =   0.0039062
        k(  370) = (  -0.3709945  -0.4644552   0.0697774), wk =   0.0039062
        k(  371) = (  -0.3737983  -0.4668295   0.1452629), wk =   0.0039062
        k(  372) = (  -0.3766020  -0.4692038   0.2207484), wk =   0.0039062
        k(  373) = (  -0.3569757  -0.4525837  -0.3076502), wk =   0.0039062
        k(  374) = (  -0.3597795  -0.4549580  -0.2321646), wk =   0.0039062
        k(  375) = (  -0.3625832  -0.4573323  -0.1566791), wk =   0.0039062
        k(  376) = (  -0.3653870  -0.4597066  -0.0811936), wk =   0.0039062
        k(  377) = (  -0.3705399  -0.3202432   0.0004266), wk =   0.0039062
        k(  378) = (  -0.3733437  -0.3226175   0.0759121), wk =   0.0039062
        k(  379) = (  -0.3761475  -0.3249918   0.1513976), wk =   0.0039062
        k(  380) = (  -0.3789512  -0.3273661   0.2268831), wk =   0.0039062
        k(  381) = (  -0.3593249  -0.3107460  -0.3015155), wk =   0.0039062
        k(  382) = (  -0.3621287  -0.3131203  -0.2260300), wk =   0.0039062
        k(  383) = (  -0.3649324  -0.3154946  -0.1505444), wk =   0.0039062
        k(  384) = (  -0.3677362  -0.3178689  -0.0750589), wk =   0.0039062
        k(  385) = (  -0.2485928  -0.1189370   0.0043742), wk =   0.0039062
        k(  386) = (  -0.2513965  -0.1213113   0.0798597), wk =   0.0039062
        k(  387) = (  -0.2542003  -0.1236856   0.1553452), wk =   0.0039062
        k(  388) = (  -0.2570040  -0.1260599   0.2308307), wk =   0.0039062
        k(  389) = (  -0.2373777  -0.1094398  -0.2975679), wk =   0.0039062
        k(  390) = (  -0.2401815  -0.1118141  -0.2220824), wk =   0.0039062
        k(  391) = (  -0.2429852  -0.1141884  -0.1465968), wk =   0.0039062
        k(  392) = (  -0.2457890  -0.1165627  -0.0711113), wk =   0.0039062
        k(  393) = (  -0.2509419   0.0229006   0.0105089), wk =   0.0039062
        k(  394) = (  -0.2537457   0.0205263   0.0859944), wk =   0.0039062
        k(  395) = (  -0.2565495   0.0181520   0.1614799), wk =   0.0039062
        k(  396) = (  -0.2593532   0.0157777   0.2369654), wk =   0.0039062
        k(  397) = (  -0.2397269   0.0323978  -0.2914332), wk =   0.0039062
        k(  398) = (  -0.2425307   0.0300235  -0.2159477), wk =   0.0039062
        k(  399) = (  -0.2453344   0.0276492  -0.1404622), wk =   0.0039062
        k(  400) = (  -0.2481382   0.0252749  -0.0649766), wk =   0.0039062
        k(  401) = (  -0.2532911   0.1647383   0.0166436), wk =   0.0039062
        k(  402) = (  -0.2560949   0.1623640   0.0921291), wk =   0.0039062
        k(  403) = (  -0.2588987   0.1599897   0.1676146), wk =   0.0039062
        k(  404) = (  -0.2617024   0.1576154   0.2431001), wk =   0.0039062
        k(  405) = (  -0.2420761   0.1742355  -0.2852985), wk =   0.0039062
        k(  406) = (  -0.2448799   0.1718612  -0.2098130), wk =   0.0039062
        k(  407) = (  -0.2476836   0.1694869  -0.1343275), wk =   0.0039062
        k(  408) = (  -0.2504874   0.1671126  -0.0588420), wk =   0.0039062
        k(  409) = (  -0.2556403   0.3065760   0.0227782), wk =   0.0039062
        k(  410) = (  -0.2584441   0.3042017   0.0982638), wk =   0.0039062
        k(  411) = (  -0.2612479   0.3018274   0.1737493), wk =   0.0039062
        k(  412) = (  -0.2640516   0.2994531   0.2492348), wk =   0.0039062
        k(  413) = (  -0.2444253   0.3160732  -0.2791638), wk =   0.0039062
        k(  414) = (  -0.2472290   0.3136989  -0.2036783), wk =   0.0039062
        k(  415) = (  -0.2500328   0.3113246  -0.1281928), wk =   0.0039062
        k(  416) = (  -0.2528366   0.3089503  -0.0527073), wk =   0.0039062
        k(  417) = (  -0.2391960  -0.6862877  -0.0201646), wk =   0.0039062
        k(  418) = (  -0.2419998  -0.6886620   0.0553209), wk =   0.0039062
        k(  419) = (  -0.2448035  -0.6910363   0.1308064), wk =   0.0039062
        k(  420) = (  -0.2476073  -0.6934106   0.2062919), wk =   0.0039062
        k(  421) = (  -0.2279809  -0.6767905  -0.3221066), wk =   0.0039062
        k(  422) = (  -0.2307847  -0.6791648  -0.2466211), wk =   0.0039062
        k(  423) = (  -0.2335885  -0.6815391  -0.1711356), wk =   0.0039062
        k(  424) = (  -0.2363922  -0.6839134  -0.0956501), wk =   0.0039062
        k(  425) = (  -0.2415452  -0.5444500  -0.0140299), wk =   0.0039062
        k(  426) = (  -0.2443489  -0.5468243   0.0614556), wk =   0.0039062
        k(  427) = (  -0.2471527  -0.5491986   0.1369411), wk =   0.0039062
        k(  428) = (  -0.2499565  -0.5515729   0.2124266), wk =   0.0039062
        k(  429) = (  -0.2303301  -0.5349528  -0.3159719), wk =   0.0039062
        k(  430) = (  -0.2331339  -0.5373271  -0.2404864), wk =   0.0039062
        k(  431) = (  -0.2359377  -0.5397014  -0.1650009), wk =   0.0039062
        k(  432) = (  -0.2387414  -0.5420757  -0.0895154), wk =   0.0039062
        k(  433) = (  -0.2438944  -0.4026124  -0.0078952), wk =   0.0039062
        k(  434) = (  -0.2466981  -0.4049867   0.0675903), wk =   0.0039062
        k(  435) = (  -0.2495019  -0.4073610   0.1430758), wk =   0.0039062
        k(  436) = (  -0.2523057  -0.4097353   0.2185613), wk =   0.0039062
        k(  437) = (  -0.2326793  -0.3931152  -0.3098372), wk =   0.0039062
        k(  438) = (  -0.2354831  -0.3954895  -0.2343517), wk =   0.0039062
        k(  439) = (  -0.2382869  -0.3978638  -0.1588662), wk =   0.0039062
        k(  440) = (  -0.2410906  -0.4002381  -0.0833807), wk =   0.0039062
        k(  441) = (  -0.2462436  -0.2607747  -0.0017605), wk =   0.0039062
        k(  442) = (  -0.2490473  -0.2631490   0.0737250), wk =   0.0039062
        k(  443) = (  -0.2518511  -0.2655233   0.1492105), wk =   0.0039062
        k(  444) = (  -0.2546549  -0.2678976   0.2246960), wk =   0.0039062
        k(  445) = (  -0.2350285  -0.2512775  -0.3037026), wk =   0.0039062
        k(  446) = (  -0.2378323  -0.2536518  -0.2282170), wk =   0.0039062
        k(  447) = (  -0.2406360  -0.2560261  -0.1527315), wk =   0.0039062
        k(  448) = (  -0.2434398  -0.2584004  -0.0772460), wk =   0.0039062
        k(  449) = (  -0.1242964  -0.0594685   0.0021871), wk =   0.0039062
        k(  450) = (  -0.1271001  -0.0618428   0.0776726), wk =   0.0039062
        k(  451) = (  -0.1299039  -0.0642171   0.1531581), wk =   0.0039062
        k(  452) = (  -0.1327077  -0.0665914   0.2286436), wk =   0.0039062
        k(  453) = (  -0.1130813  -0.0499713  -0.2997550), wk =   0.0039062
        k(  454) = (  -0.1158851  -0.0523456  -0.2242694), wk =   0.0039062
        k(  455) = (  -0.1186889  -0.0547199  -0.1487839), wk =   0.0039062
        k(  456) = (  -0.1214926  -0.0570942  -0.0732984), wk =   0.0039062
        k(  457) = (  -0.1266456   0.0823692   0.0083218), wk =   0.0039062
        k(  458) = (  -0.1294493   0.0799949   0.0838073), wk =   0.0039062
        k(  459) = (  -0.1322531   0.0776206   0.1592928), wk =   0.0039062
        k(  460) = (  -0.1350569   0.0752463   0.2347783), wk =   0.0039062
        k(  461) = (  -0.1154305   0.0918663  -0.2936203), wk =   0.0039062
        k(  462) = (  -0.1182343   0.0894921  -0.2181348), wk =   0.0039062
        k(  463) = (  -0.1210380   0.0871178  -0.1426492), wk =   0.0039062
        k(  464) = (  -0.1238418   0.0847435  -0.0671637), wk =   0.0039062
        k(  465) = (  -0.1289948   0.2242068   0.0144565), wk =   0.0039062
        k(  466) = (  -0.1317985   0.2218325   0.0899420), wk =   0.0039062
        k(  467) = (  -0.1346023   0.2194582   0.1654275), wk =   0.0039062
        k(  468) = (  -0.1374060   0.2170839   0.2409130), wk =   0.0039062
        k(  469) = (  -0.1177797   0.2337040  -0.2874856), wk =   0.0039062
        k(  470) = (  -0.1205835   0.2313297  -0.2120001), wk =   0.0039062
        k(  471) = (  -0.1233872   0.2289554  -0.1365146), wk =   0.0039062
        k(  472) = (  -0.1261910   0.2265811  -0.0610290), wk =   0.0039062
        k(  473) = (  -0.1313439   0.3660445   0.0205912), wk =   0.0039062
        k(  474) = (  -0.1341477   0.3636702   0.0960767), wk =   0.0039062
        k(  475) = (  -0.1369515   0.3612959   0.1715622), wk =   0.0039062
        k(  476) = (  -0.1397552   0.3589216   0.2470477), wk =   0.0039062
        k(  477) = (  -0.1201289   0.3755417  -0.2813509), wk =   0.0039062
        k(  478) = (  -0.1229327   0.3731674  -0.2058654), wk =   0.0039062
        k(  479) = (  -0.1257364   0.3707931  -0.1303799), wk =   0.0039062
        k(  480) = (  -0.1285402   0.3684188  -0.0548944), wk =   0.0039062
        k(  481) = (  -0.1148996  -0.6268192  -0.0223517), wk =   0.0039062
        k(  482) = (  -0.1177034  -0.6291935   0.0531338), wk =   0.0039062
        k(  483) = (  -0.1205071  -0.6315678   0.1286194), wk =   0.0039062
        k(  484) = (  -0.1233109  -0.6339421   0.2041049), wk =   0.0039062
        k(  485) = (  -0.1036846  -0.6173220  -0.3242937), wk =   0.0039062
        k(  486) = (  -0.1064883  -0.6196963  -0.2488082), wk =   0.0039062
        k(  487) = (  -0.1092921  -0.6220706  -0.1733227), wk =   0.0039062
        k(  488) = (  -0.1120959  -0.6244449  -0.0978372), wk =   0.0039062
        k(  489) = (  -0.1172488  -0.4849815  -0.0162170), wk =   0.0039062
        k(  490) = (  -0.1200526  -0.4873558   0.0592685), wk =   0.0039062
        k(  491) = (  -0.1228563  -0.4897301   0.1347540), wk =   0.0039062
        k(  492) = (  -0.1256601  -0.4921044   0.2102396), wk =   0.0039062
        k(  493) = (  -0.1060338  -0.4754843  -0.3181590), wk =   0.0039062
        k(  494) = (  -0.1088375  -0.4778586  -0.2426735), wk =   0.0039062
        k(  495) = (  -0.1116413  -0.4802329  -0.1671880), wk =   0.0039062
        k(  496) = (  -0.1144450  -0.4826072  -0.0917025), wk =   0.0039062
        k(  497) = (  -0.1195980  -0.3431438  -0.0100823), wk =   0.0039062
        k(  498) = (  -0.1224018  -0.3455181   0.0654032), wk =   0.0039062
        k(  499) = (  -0.1252055  -0.3478924   0.1408887), wk =   0.0039062
        k(  500) = (  -0.1280093  -0.3502667   0.2163742), wk =   0.0039062
        k(  501) = (  -0.1083829  -0.3336467  -0.3120243), wk =   0.0039062
        k(  502) = (  -0.1111867  -0.3360210  -0.2365388), wk =   0.0039062
        k(  503) = (  -0.1139905  -0.3383953  -0.1610533), wk =   0.0039062
        k(  504) = (  -0.1167942  -0.3407696  -0.0855678), wk =   0.0039062
        k(  505) = (  -0.1219472  -0.2013062  -0.0039476), wk =   0.0039062
        k(  506) = (  -0.1247509  -0.2036805   0.0715379), wk =   0.0039062
        k(  507) = (  -0.1275547  -0.2060548   0.1470234), wk =   0.0039062
        k(  508) = (  -0.1303585  -0.2084291   0.2225089), wk =   0.0039062
        k(  509) = (  -0.1107321  -0.1918090  -0.3058896), wk =   0.0039062
        k(  510) = (  -0.1135359  -0.1941833  -0.2304041), wk =   0.0039062
        k(  511) = (  -0.1163397  -0.1965576  -0.1549186), wk =   0.0039062
        k(  512) = (  -0.1191434  -0.1989319  -0.0794331), wk =   0.0039062

                       cryst. coord.
        k(    1) = (   0.0000000   0.0000000   0.0000000), wk =   0.0039062
        k(    2) = (   0.0000000   0.0000000   0.1250000), wk =   0.0039062
        k(    3) = (   0.0000000   0.0000000   0.2500000), wk =   0.0039062
        k(    4) = (  -0.0000000   0.0000000   0.3750000), wk =   0.0039062
        k(    5) = (   0.0000000  -0.0000000  -0.5000000), wk =   0.0039062
        k(    6) = (   0.0000000  -0.0000000  -0.3750000), wk =   0.0039062
        k(    7) = (   0.0000000  -0.0000000  -0.2500000), wk =   0.0039062
        k(    8) = (   0.0000000  -0.0000000  -0.1250000), wk =   0.0039062
        k(    9) = (   0.0000000   0.1250000  -0.0000000), wk =   0.0039062
        k(   10) = (   0.0000000   0.1250000   0.1250000), wk =   0.0039062
        k(   11) = (   0.0000000   0.1250000   0.2500000), wk =   0.0039062
        k(   12) = (  -0.0000000   0.1250000   0.3750000), wk =   0.0039062
        k(   13) = (   0.0000000   0.1250000  -0.5000000), wk =   0.0039062
        k(   14) = (   0.0000000   0.1250000  -0.3750000), wk =   0.0039062
        k(   15) = (   0.0000000   0.1250000  -0.2500000), wk =   0.0039062
        k(   16) = (   0.0000000   0.1250000  -0.1250000), wk =   0.0039062
        k(   17) = (   0.0000000   0.2500000  -0.0000000), wk =   0.0039062
        k(   18) = (   0.0000000   0.2500000   0.1250000), wk =   0.0039062
        k(   19) = (   0.0000000   0.2500000   0.2500000), wk =   0.0039062
        k(   20) = (   0.0000000   0.2500000   0.3750000), wk =   0.0039062
        k(   21) = (   0.0000000   0.2500000  -0.5000000), wk =   0.0039062
        k(   22) = (   0.0000000   0.2500000  -0.3750000), wk =   0.0039062
        k(   23) = (   0.0000000   0.2500000  -0.2500000), wk =   0.0039062
        k(   24) = (  -0.0000000   0.2500000  -0.1250000), wk =   0.0039062
        k(   25) = (   0.0000000   0.3750000  -0.0000000), wk =   0.0039062
        k(   26) = (  -0.0000000   0.3750000   0.1250000), wk =   0.0039062
        k(   27) = (   0.0000000   0.3750000   0.2500000), wk =   0.0039062
        k(   28) = (  -0.0000000   0.3750000   0.3750000), wk =   0.0039062
        k(   29) = (   0.0000000   0.3750000  -0.5000000), wk =   0.0039062
        k(   30) = (   0.0000000   0.3750000  -0.3750000), wk =   0.0039062
        k(   31) = (   0.0000000   0.3750000  -0.2500000), wk =   0.0039062
        k(   32) = (   0.0000000   0.3750000  -0.1250000), wk =   0.0039062
        k(   33) = (  -0.0000000  -0.5000000   0.0000000), wk =   0.0039062
        k(   34) = (  -0.0000000  -0.5000000   0.1250000), wk =   0.0039062
        k(   35) = (   0.0000000  -0.5000000   0.2500000), wk =   0.0039062
        k(   36) = (  -0.0000000  -0.5000000   0.3750000), wk =   0.0039062
        k(   37) = (   0.0000000  -0.5000000  -0.5000000), wk =   0.0039062
        k(   38) = (   0.0000000  -0.5000000  -0.3750000), wk =   0.0039062
        k(   39) = (  -0.0000000  -0.5000000  -0.2500000), wk =   0.0039062
        k(   40) = (   0.0000000  -0.5000000  -0.1250000), wk =   0.0039062
        k(   41) = (  -0.0000000  -0.3750000   0.0000000), wk =   0.0039062
        k(   42) = (  -0.0000000  -0.3750000   0.1250000), wk =   0.0039062
        k(   43) = (  -0.0000000  -0.3750000   0.2500000), wk =   0.0039062
        k(   44) = (  -0.0000000  -0.3750000   0.3750000), wk =   0.0039062
        k(   45) = (  -0.0000000  -0.3750000  -0.5000000), wk =   0.0039062
        k(   46) = (   0.0000000  -0.3750000  -0.3750000), wk =   0.0039062
        k(   47) = (  -0.0000000  -0.3750000  -0.2500000), wk =   0.0039062
        k(   48) = (   0.0000000  -0.3750000  -0.1250000), wk =   0.0039062
        k(   49) = (  -0.0000000  -0.2500000   0.0000000), wk =   0.0039062
        k(   50) = (   0.0000000  -0.2500000   0.1250000), wk =   0.0039062
        k(   51) = (  -0.0000000  -0.2500000   0.2500000), wk =   0.0039062
        k(   52) = (   0.0000000  -0.2500000   0.3750000), wk =   0.0039062
        k(   53) = (  -0.0000000  -0.2500000  -0.5000000), wk =   0.0039062
        k(   54) = (  -0.0000000  -0.2500000  -0.3750000), wk =   0.0039062
        k(   55) = (   0.0000000  -0.2500000  -0.2500000), wk =   0.0039062
        k(   56) = (  -0.0000000  -0.2500000  -0.1250000), wk =   0.0039062
        k(   57) = (  -0.0000000  -0.1250000   0.0000000), wk =   0.0039062
        k(   58) = (  -0.0000000  -0.1250000   0.1250000), wk =   0.0039062
        k(   59) = (  -0.0000000  -0.1250000   0.2500000), wk =   0.0039062
        k(   60) = (  -0.0000000  -0.1250000   0.3750000), wk =   0.0039062
        k(   61) = (   0.0000000  -0.1250000  -0.5000000), wk =   0.0039062
        k(   62) = (   0.0000000  -0.1250000  -0.3750000), wk =   0.0039062
        k(   63) = (  -0.0000000  -0.1250000  -0.2500000), wk =   0.0039062
        k(   64) = (   0.0000000  -0.1250000  -0.1250000), wk =   0.0039062
        k(   65) = (   0.1250000   0.0000000  -0.0000000), wk =   0.0039062
        k(   66) = (   0.1250000   0.0000000   0.1250000), wk =   0.0039062
        k(   67) = (   0.1250000   0.0000000   0.2500000), wk =   0.0039062
        k(   68) = (   0.1250000   0.0000000   0.3750000), wk =   0.0039062
        k(   69) = (   0.1250000  -0.0000000  -0.5000000), wk =   0.0039062
        k(   70) = (   0.1250000   0.0000000  -0.3750000), wk =   0.0039062
        k(   71) = (   0.1250000   0.0000000  -0.2500000), wk =   0.0039062
        k(   72) = (   0.1250000   0.0000000  -0.1250000), wk =   0.0039062
        k(   73) = (   0.1250000   0.1250000  -0.0000000), wk =   0.0039062
        k(   74) = (   0.1250000   0.1250000   0.1250000), wk =   0.0039062
        k(   75) = (   0.1250000   0.1250000   0.2500000), wk =   0.0039062
        k(   76) = (   0.1250000   0.1250000   0.3750000), wk =   0.0039062
        k(   77) = (   0.1250000   0.1250000  -0.5000000), wk =   0.0039062
        k(   78) = (   0.1250000   0.1250000  -0.3750000), wk =   0.0039062
        k(   79) = (   0.1250000   0.1250000  -0.2500000), wk =   0.0039062
        k(   80) = (   0.1250000   0.1250000  -0.1250000), wk =   0.0039062
        k(   81) = (   0.1250000   0.2500000  -0.0000000), wk =   0.0039062
        k(   82) = (   0.1250000   0.2500000   0.1250000), wk =   0.0039062
        k(   83) = (   0.1250000   0.2500000   0.2500000), wk =   0.0039062
        k(   84) = (   0.1250000   0.2500000   0.3750000), wk =   0.0039062
        k(   85) = (   0.1250000   0.2500000  -0.5000000), wk =   0.0039062
        k(   86) = (   0.1250000   0.2500000  -0.3750000), wk =   0.0039062
        k(   87) = (   0.1250000   0.2500000  -0.2500000), wk =   0.0039062
        k(   88) = (   0.1250000   0.2500000  -0.1250000), wk =   0.0039062
        k(   89) = (   0.1250000   0.3750000  -0.0000000), wk =   0.0039062
        k(   90) = (   0.1250000   0.3750000   0.1250000), wk =   0.0039062
        k(   91) = (   0.1250000   0.3750000   0.2500000), wk =   0.0039062
        k(   92) = (   0.1250000   0.3750000   0.3750000), wk =   0.0039062
        k(   93) = (   0.1250000   0.3750000  -0.5000000), wk =   0.0039062
        k(   94) = (   0.1250000   0.3750000  -0.3750000), wk =   0.0039062
        k(   95) = (   0.1250000   0.3750000  -0.2500000), wk =   0.0039062
        k(   96) = (   0.1250000   0.3750000  -0.1250000), wk =   0.0039062
        k(   97) = (   0.1250000  -0.5000000   0.0000000), wk =   0.0039062
        k(   98) = (   0.1250000  -0.5000000   0.1250000), wk =   0.0039062
        k(   99) = (   0.1250000  -0.5000000   0.2500000), wk =   0.0039062
        k(  100) = (   0.1250000  -0.5000000   0.3750000), wk =   0.0039062
        k(  101) = (   0.1250000  -0.5000000  -0.5000000), wk =   0.0039062
        k(  102) = (   0.1250000  -0.5000000  -0.3750000), wk =   0.0039062
        k(  103) = (   0.1250000  -0.5000000  -0.2500000), wk =   0.0039062
        k(  104) = (   0.1250000  -0.5000000  -0.1250000), wk =   0.0039062
        k(  105) = (   0.1250000  -0.3750000   0.0000000), wk =   0.0039062
        k(  106) = (   0.1250000  -0.3750000   0.1250000), wk =   0.0039062
        k(  107) = (   0.1250000  -0.3750000   0.2500000), wk =   0.0039062
        k(  108) = (   0.1250000  -0.3750000   0.3750000), wk =   0.0039062
        k(  109) = (   0.1250000  -0.3750000  -0.5000000), wk =   0.0039062
        k(  110) = (   0.1250000  -0.3750000  -0.3750000), wk =   0.0039062
        k(  111) = (   0.1250000  -0.3750000  -0.2500000), wk =   0.0039062
        k(  112) = (   0.1250000  -0.3750000  -0.1250000), wk =   0.0039062
        k(  113) = (   0.1250000  -0.2500000   0.0000000), wk =   0.0039062
        k(  114) = (   0.1250000  -0.2500000   0.1250000), wk =   0.0039062
        k(  115) = (   0.1250000  -0.2500000   0.2500000), wk =   0.0039062
        k(  116) = (   0.1250000  -0.2500000   0.3750000), wk =   0.0039062
        k(  117) = (   0.1250000  -0.2500000  -0.5000000), wk =   0.0039062
        k(  118) = (   0.1250000  -0.2500000  -0.3750000), wk =   0.0039062
        k(  119) = (   0.1250000  -0.2500000  -0.2500000), wk =   0.0039062
        k(  120) = (   0.1250000  -0.2500000  -0.1250000), wk =   0.0039062
        k(  121) = (   0.1250000  -0.1250000   0.0000000), wk =   0.0039062
        k(  122) = (   0.1250000  -0.1250000   0.1250000), wk =   0.0039062
        k(  123) = (   0.1250000  -0.1250000   0.2500000), wk =   0.0039062
        k(  124) = (   0.1250000  -0.1250000   0.3750000), wk =   0.0039062
        k(  125) = (   0.1250000  -0.1250000  -0.5000000), wk =   0.0039062
        k(  126) = (   0.1250000  -0.1250000  -0.3750000), wk =   0.0039062
        k(  127) = (   0.1250000  -0.1250000  -0.2500000), wk =   0.0039062
        k(  128) = (   0.1250000  -0.1250000  -0.1250000), wk =   0.0039062
        k(  129) = (   0.2500000   0.0000000  -0.0000000), wk =   0.0039062
        k(  130) = (   0.2500000   0.0000000   0.1250000), wk =   0.0039062
        k(  131) = (   0.2500000   0.0000000   0.2500000), wk =   0.0039062
        k(  132) = (   0.2500000   0.0000000   0.3750000), wk =   0.0039062
        k(  133) = (   0.2500000   0.0000000  -0.5000000), wk =   0.0039062
        k(  134) = (   0.2500000   0.0000000  -0.3750000), wk =   0.0039062
        k(  135) = (   0.2500000   0.0000000  -0.2500000), wk =   0.0039062
        k(  136) = (   0.2500000   0.0000000  -0.1250000), wk =   0.0039062
        k(  137) = (   0.2500000   0.1250000  -0.0000000), wk =   0.0039062
        k(  138) = (   0.2500000   0.1250000   0.1250000), wk =   0.0039062
        k(  139) = (   0.2500000   0.1250000   0.2500000), wk =   0.0039062
        k(  140) = (   0.2500000   0.1250000   0.3750000), wk =   0.0039062
        k(  141) = (   0.2500000   0.1250000  -0.5000000), wk =   0.0039062
        k(  142) = (   0.2500000   0.1250000  -0.3750000), wk =   0.0039062
        k(  143) = (   0.2500000   0.1250000  -0.2500000), wk =   0.0039062
        k(  144) = (   0.2500000   0.1250000  -0.1250000), wk =   0.0039062
        k(  145) = (   0.2500000   0.2500000  -0.0000000), wk =   0.0039062
        k(  146) = (   0.2500000   0.2500000   0.1250000), wk =   0.0039062
        k(  147) = (   0.2500000   0.2500000   0.2500000), wk =   0.0039062
        k(  148) = (   0.2500000   0.2500000   0.3750000), wk =   0.0039062
        k(  149) = (   0.2500000   0.2500000  -0.5000000), wk =   0.0039062
        k(  150) = (   0.2500000   0.2500000  -0.3750000), wk =   0.0039062
        k(  151) = (   0.2500000   0.2500000  -0.2500000), wk =   0.0039062
        k(  152) = (   0.2500000   0.2500000  -0.1250000), wk =   0.0039062
        k(  153) = (   0.2500000   0.3750000   0.0000000), wk =   0.0039062
        k(  154) = (   0.2500000   0.3750000   0.1250000), wk =   0.0039062
        k(  155) = (   0.2500000   0.3750000   0.2500000), wk =   0.0039062
        k(  156) = (   0.2500000   0.3750000   0.3750000), wk =   0.0039062
        k(  157) = (   0.2500000   0.3750000  -0.5000000), wk =   0.0039062
        k(  158) = (   0.2500000   0.3750000  -0.3750000), wk =   0.0039062
        k(  159) = (   0.2500000   0.3750000  -0.2500000), wk =   0.0039062
        k(  160) = (   0.2500000   0.3750000  -0.1250000), wk =   0.0039062
        k(  161) = (   0.2500000  -0.5000000   0.0000000), wk =   0.0039062
        k(  162) = (   0.2500000  -0.5000000   0.1250000), wk =   0.0039062
        k(  163) = (   0.2500000  -0.5000000   0.2500000), wk =   0.0039062
        k(  164) = (   0.2500000  -0.5000000   0.3750000), wk =   0.0039062
        k(  165) = (   0.2500000  -0.5000000  -0.5000000), wk =   0.0039062
        k(  166) = (   0.2500000  -0.5000000  -0.3750000), wk =   0.0039062
        k(  167) = (   0.2500000  -0.5000000  -0.2500000), wk =   0.0039062
        k(  168) = (   0.2500000  -0.5000000  -0.1250000), wk =   0.0039062
        k(  169) = (   0.2500000  -0.3750000   0.0000000), wk =   0.0039062
        k(  170) = (   0.2500000  -0.3750000   0.1250000), wk =   0.0039062
        k(  171) = (   0.2500000  -0.3750000   0.2500000), wk =   0.0039062
        k(  172) = (   0.2500000  -0.3750000   0.3750000), wk =   0.0039062
        k(  173) = (   0.2500000  -0.3750000  -0.5000000), wk =   0.0039062
        k(  174) = (   0.2500000  -0.3750000  -0.3750000), wk =   0.0039062
        k(  175) = (   0.2500000  -0.3750000  -0.2500000), wk =   0.0039062
        k(  176) = (   0.2500000  -0.3750000  -0.1250000), wk =   0.0039062
        k(  177) = (   0.2500000  -0.2500000   0.0000000), wk =   0.0039062
        k(  178) = (   0.2500000  -0.2500000   0.1250000), wk =   0.0039062
        k(  179) = (   0.2500000  -0.2500000   0.2500000), wk =   0.0039062
        k(  180) = (   0.2500000  -0.2500000   0.3750000), wk =   0.0039062
        k(  181) = (   0.2500000  -0.2500000  -0.5000000), wk =   0.0039062
        k(  182) = (   0.2500000  -0.2500000  -0.3750000), wk =   0.0039062
        k(  183) = (   0.2500000  -0.2500000  -0.2500000), wk =   0.0039062
        k(  184) = (   0.2500000  -0.2500000  -0.1250000), wk =   0.0039062
        k(  185) = (   0.2500000  -0.1250000   0.0000000), wk =   0.0039062
        k(  186) = (   0.2500000  -0.1250000   0.1250000), wk =   0.0039062
        k(  187) = (   0.2500000  -0.1250000   0.2500000), wk =   0.0039062
        k(  188) = (   0.2500000  -0.1250000   0.3750000), wk =   0.0039062
        k(  189) = (   0.2500000  -0.1250000  -0.5000000), wk =   0.0039062
        k(  190) = (   0.2500000  -0.1250000  -0.3750000), wk =   0.0039062
        k(  191) = (   0.2500000  -0.1250000  -0.2500000), wk =   0.0039062
        k(  192) = (   0.2500000  -0.1250000  -0.1250000), wk =   0.0039062
        k(  193) = (   0.3750000  -0.0000000  -0.0000000), wk =   0.0039062
        k(  194) = (   0.3750000  -0.0000000   0.1250000), wk =   0.0039062
        k(  195) = (   0.3750000  -0.0000000   0.2500000), wk =   0.0039062
        k(  196) = (   0.3750000   0.0000000   0.3750000), wk =   0.0039062
        k(  197) = (   0.3750000  -0.0000000  -0.5000000), wk =   0.0039062
        k(  198) = (   0.3750000   0.0000000  -0.3750000), wk =   0.0039062
        k(  199) = (   0.3750000   0.0000000  -0.2500000), wk =   0.0039062
        k(  200) = (   0.3750000  -0.0000000  -0.1250000), wk =   0.0039062
        k(  201) = (   0.3750000   0.1250000  -0.0000000), wk =   0.0039062
        k(  202) = (   0.3750000   0.1250000   0.1250000), wk =   0.0039062
        k(  203) = (   0.3750000   0.1250000   0.2500000), wk =   0.0039062
        k(  204) = (   0.3750000   0.1250000   0.3750000), wk =   0.0039062
        k(  205) = (   0.3750000   0.1250000  -0.5000000), wk =   0.0039062
        k(  206) = (   0.3750000   0.1250000  -0.3750000), wk =   0.0039062
        k(  207) = (   0.3750000   0.1250000  -0.2500000), wk =   0.0039062
        k(  208) = (   0.3750000   0.1250000  -0.1250000), wk =   0.0039062
        k(  209) = (   0.3750000   0.2500000  -0.0000000), wk =   0.0039062
        k(  210) = (   0.3750000   0.2500000   0.1250000), wk =   0.0039062
        k(  211) = (   0.3750000   0.2500000   0.2500000), wk =   0.0039062
        k(  212) = (   0.3750000   0.2500000   0.3750000), wk =   0.0039062
        k(  213) = (   0.3750000   0.2500000  -0.5000000), wk =   0.0039062
        k(  214) = (   0.3750000   0.2500000  -0.3750000), wk =   0.0039062
        k(  215) = (   0.3750000   0.2500000  -0.2500000), wk =   0.0039062
        k(  216) = (   0.3750000   0.2500000  -0.1250000), wk =   0.0039062
        k(  217) = (   0.3750000   0.3750000  -0.0000000), wk =   0.0039062
        k(  218) = (   0.3750000   0.3750000   0.1250000), wk =   0.0039062
        k(  219) = (   0.3750000   0.3750000   0.2500000), wk =   0.0039062
        k(  220) = (   0.3750000   0.3750000   0.3750000), wk =   0.0039062
        k(  221) = (   0.3750000   0.3750000  -0.5000000), wk =   0.0039062
        k(  222) = (   0.3750000   0.3750000  -0.3750000), wk =   0.0039062
        k(  223) = (   0.3750000   0.3750000  -0.2500000), wk =   0.0039062
        k(  224) = (   0.3750000   0.3750000  -0.1250000), wk =   0.0039062
        k(  225) = (   0.3750000  -0.5000000   0.0000000), wk =   0.0039062
        k(  226) = (   0.3750000  -0.5000000   0.1250000), wk =   0.0039062
        k(  227) = (   0.3750000  -0.5000000   0.2500000), wk =   0.0039062
        k(  228) = (   0.3750000  -0.5000000   0.3750000), wk =   0.0039062
        k(  229) = (   0.3750000  -0.5000000  -0.5000000), wk =   0.0039062
        k(  230) = (   0.3750000  -0.5000000  -0.3750000), wk =   0.0039062
        k(  231) = (   0.3750000  -0.5000000  -0.2500000), wk =   0.0039062
        k(  232) = (   0.3750000  -0.5000000  -0.1250000), wk =   0.0039062
        k(  233) = (   0.3750000  -0.3750000   0.0000000), wk =   0.0039062
        k(  234) = (   0.3750000  -0.3750000   0.1250000), wk =   0.0039062
        k(  235) = (   0.3750000  -0.3750000   0.2500000), wk =   0.0039062
        k(  236) = (   0.3750000  -0.3750000   0.3750000), wk =   0.0039062
        k(  237) = (   0.3750000  -0.3750000  -0.5000000), wk =   0.0039062
        k(  238) = (   0.3750000  -0.3750000  -0.3750000), wk =   0.0039062
        k(  239) = (   0.3750000  -0.3750000  -0.2500000), wk =   0.0039062
        k(  240) = (   0.3750000  -0.3750000  -0.1250000), wk =   0.0039062
        k(  241) = (   0.3750000  -0.2500000   0.0000000), wk =   0.0039062
        k(  242) = (   0.3750000  -0.2500000   0.1250000), wk =   0.0039062
        k(  243) = (   0.3750000  -0.2500000   0.2500000), wk =   0.0039062
        k(  244) = (   0.3750000  -0.2500000   0.3750000), wk =   0.0039062
        k(  245) = (   0.3750000  -0.2500000  -0.5000000), wk =   0.0039062
        k(  246) = (   0.3750000  -0.2500000  -0.3750000), wk =   0.0039062
        k(  247) = (   0.3750000  -0.2500000  -0.2500000), wk =   0.0039062
        k(  248) = (   0.3750000  -0.2500000  -0.1250000), wk =   0.0039062
        k(  249) = (   0.3750000  -0.1250000   0.0000000), wk =   0.0039062
        k(  250) = (   0.3750000  -0.1250000   0.1250000), wk =   0.0039062
        k(  251) = (   0.3750000  -0.1250000   0.2500000), wk =   0.0039062
        k(  252) = (   0.3750000  -0.1250000   0.3750000), wk =   0.0039062
        k(  253) = (   0.3750000  -0.1250000  -0.5000000), wk =   0.0039062
        k(  254) = (   0.3750000  -0.1250000  -0.3750000), wk =   0.0039062
        k(  255) = (   0.3750000  -0.1250000  -0.2500000), wk =   0.0039062
        k(  256) = (   0.3750000  -0.1250000  -0.1250000), wk =   0.0039062
        k(  257) = (  -0.5000000  -0.0000000   0.0000000), wk =   0.0039062
        k(  258) = (  -0.5000000  -0.0000000   0.1250000), wk =   0.0039062
        k(  259) = (  -0.5000000  -0.0000000   0.2500000), wk =   0.0039062
        k(  260) = (  -0.5000000  -0.0000000   0.3750000), wk =   0.0039062
        k(  261) = (  -0.5000000  -0.0000000  -0.5000000), wk =   0.0039062
        k(  262) = (  -0.5000000  -0.0000000  -0.3750000), wk =   0.0039062
        k(  263) = (  -0.5000000  -0.0000000  -0.2500000), wk =   0.0039062
        k(  264) = (  -0.5000000   0.0000000  -0.1250000), wk =   0.0039062
        k(  265) = (  -0.5000000   0.1250000   0.0000000), wk =   0.0039062
        k(  266) = (  -0.5000000   0.1250000   0.1250000), wk =   0.0039062
        k(  267) = (  -0.5000000   0.1250000   0.2500000), wk =   0.0039062
        k(  268) = (  -0.5000000   0.1250000   0.3750000), wk =   0.0039062
        k(  269) = (  -0.5000000   0.1250000  -0.5000000), wk =   0.0039062
        k(  270) = (  -0.5000000   0.1250000  -0.3750000), wk =   0.0039062
        k(  271) = (  -0.5000000   0.1250000  -0.2500000), wk =   0.0039062
        k(  272) = (  -0.5000000   0.1250000  -0.1250000), wk =   0.0039062
        k(  273) = (  -0.5000000   0.2500000   0.0000000), wk =   0.0039062
        k(  274) = (  -0.5000000   0.2500000   0.1250000), wk =   0.0039062
        k(  275) = (  -0.5000000   0.2500000   0.2500000), wk =   0.0039062
        k(  276) = (  -0.5000000   0.2500000   0.3750000), wk =   0.0039062
        k(  277) = (  -0.5000000   0.2500000  -0.5000000), wk =   0.0039062
        k(  278) = (  -0.5000000   0.2500000  -0.3750000), wk =   0.0039062
        k(  279) = (  -0.5000000   0.2500000  -0.2500000), wk =   0.0039062
        k(  280) = (  -0.5000000   0.2500000  -0.1250000), wk =   0.0039062
        k(  281) = (  -0.5000000   0.3750000  -0.0000000), wk =   0.0039062
        k(  282) = (  -0.5000000   0.3750000   0.1250000), wk =   0.0039062
        k(  283) = (  -0.5000000   0.3750000   0.2500000), wk =   0.0039062
        k(  284) = (  -0.5000000   0.3750000   0.3750000), wk =   0.0039062
        k(  285) = (  -0.5000000   0.3750000  -0.5000000), wk =   0.0039062
        k(  286) = (  -0.5000000   0.3750000  -0.3750000), wk =   0.0039062
        k(  287) = (  -0.5000000   0.3750000  -0.2500000), wk =   0.0039062
        k(  288) = (  -0.5000000   0.3750000  -0.1250000), wk =   0.0039062
        k(  289) = (  -0.5000000  -0.5000000   0.0000000), wk =   0.0039062
        k(  290) = (  -0.5000000  -0.5000000   0.1250000), wk =   0.0039062
        k(  291) = (  -0.5000000  -0.5000000   0.2500000), wk =   0.0039062
        k(  292) = (  -0.5000000  -0.5000000   0.3750000), wk =   0.0039062
        k(  293) = (  -0.5000000  -0.5000000  -0.5000000), wk =   0.0039062
        k(  294) = (  -0.5000000  -0.5000000  -0.3750000), wk =   0.0039062
        k(  295) = (  -0.5000000  -0.5000000  -0.2500000), wk =   0.0039062
        k(  296) = (  -0.5000000  -0.5000000  -0.1250000), wk =   0.0039062
        k(  297) = (  -0.5000000  -0.3750000   0.0000000), wk =   0.0039062
        k(  298) = (  -0.5000000  -0.3750000   0.1250000), wk =   0.0039062
        k(  299) = (  -0.5000000  -0.3750000   0.2500000), wk =   0.0039062
        k(  300) = (  -0.5000000  -0.3750000   0.3750000), wk =   0.0039062
        k(  301) = (  -0.5000000  -0.3750000  -0.5000000), wk =   0.0039062
        k(  302) = (  -0.5000000  -0.3750000  -0.3750000), wk =   0.0039062
        k(  303) = (  -0.5000000  -0.3750000  -0.2500000), wk =   0.0039062
        k(  304) = (  -0.5000000  -0.3750000  -0.1250000), wk =   0.0039062
        k(  305) = (  -0.5000000  -0.2500000   0.0000000), wk =   0.0039062
        k(  306) = (  -0.5000000  -0.2500000   0.1250000), wk =   0.0039062
        k(  307) = (  -0.5000000  -0.2500000   0.2500000), wk =   0.0039062
        k(  308) = (  -0.5000000  -0.2500000   0.3750000), wk =   0.0039062
        k(  309) = (  -0.5000000  -0.2500000  -0.5000000), wk =   0.0039062
        k(  310) = (  -0.5000000  -0.2500000  -0.3750000), wk =   0.0039062
        k(  311) = (  -0.5000000  -0.2500000  -0.2500000), wk =   0.0039062
        k(  312) = (  -0.5000000  -0.2500000  -0.1250000), wk =   0.0039062
        k(  313) = (  -0.5000000  -0.1250000   0.0000000), wk =   0.0039062
        k(  314) = (  -0.5000000  -0.1250000   0.1250000), wk =   0.0039062
        k(  315) = (  -0.5000000  -0.1250000   0.2500000), wk =   0.0039062
        k(  316) = (  -0.5000000  -0.1250000   0.3750000), wk =   0.0039062
        k(  317) = (  -0.5000000  -0.1250000  -0.5000000), wk =   0.0039062
        k(  318) = (  -0.5000000  -0.1250000  -0.3750000), wk =   0.0039062
        k(  319) = (  -0.5000000  -0.1250000  -0.2500000), wk =   0.0039062
        k(  320) = (  -0.5000000  -0.1250000  -0.1250000), wk =   0.0039062
        k(  321) = (  -0.3750000   0.0000000   0.0000000), wk =   0.0039062
        k(  322) = (  -0.3750000   0.0000000   0.1250000), wk =   0.0039062
        k(  323) = (  -0.3750000  -0.0000000   0.2500000), wk =   0.0039062
        k(  324) = (  -0.3750000  -0.0000000   0.3750000), wk =   0.0039062
        k(  325) = (  -0.3750000  -0.0000000  -0.5000000), wk =   0.0039062
        k(  326) = (  -0.3750000  -0.0000000  -0.3750000), wk =   0.0039062
        k(  327) = (  -0.3750000   0.0000000  -0.2500000), wk =   0.0039062
        k(  328) = (  -0.3750000   0.0000000  -0.1250000), wk =   0.0039062
        k(  329) = (  -0.3750000   0.1250000  -0.0000000), wk =   0.0039062
        k(  330) = (  -0.3750000   0.1250000   0.1250000), wk =   0.0039062
        k(  331) = (  -0.3750000   0.1250000   0.2500000), wk =   0.0039062
        k(  332) = (  -0.3750000   0.1250000   0.3750000), wk =   0.0039062
        k(  333) = (  -0.3750000   0.1250000  -0.5000000), wk =   0.0039062
        k(  334) = (  -0.3750000   0.1250000  -0.3750000), wk =   0.0039062
        k(  335) = (  -0.3750000   0.1250000  -0.2500000), wk =   0.0039062
        k(  336) = (  -0.3750000   0.1250000  -0.1250000), wk =   0.0039062
        k(  337) = (  -0.3750000   0.2500000  -0.0000000), wk =   0.0039062
        k(  338) = (  -0.3750000   0.2500000   0.1250000), wk =   0.0039062
        k(  339) = (  -0.3750000   0.2500000   0.2500000), wk =   0.0039062
        k(  340) = (  -0.3750000   0.2500000   0.3750000), wk =   0.0039062
        k(  341) = (  -0.3750000   0.2500000  -0.5000000), wk =   0.0039062
        k(  342) = (  -0.3750000   0.2500000  -0.3750000), wk =   0.0039062
        k(  343) = (  -0.3750000   0.2500000  -0.2500000), wk =   0.0039062
        k(  344) = (  -0.3750000   0.2500000  -0.1250000), wk =   0.0039062
        k(  345) = (  -0.3750000   0.3750000  -0.0000000), wk =   0.0039062
        k(  346) = (  -0.3750000   0.3750000   0.1250000), wk =   0.0039062
        k(  347) = (  -0.3750000   0.3750000   0.2500000), wk =   0.0039062
        k(  348) = (  -0.3750000   0.3750000   0.3750000), wk =   0.0039062
        k(  349) = (  -0.3750000   0.3750000  -0.5000000), wk =   0.0039062
        k(  350) = (  -0.3750000   0.3750000  -0.3750000), wk =   0.0039062
        k(  351) = (  -0.3750000   0.3750000  -0.2500000), wk =   0.0039062
        k(  352) = (  -0.3750000   0.3750000  -0.1250000), wk =   0.0039062
        k(  353) = (  -0.3750000  -0.5000000   0.0000000), wk =   0.0039062
        k(  354) = (  -0.3750000  -0.5000000   0.1250000), wk =   0.0039062
        k(  355) = (  -0.3750000  -0.5000000   0.2500000), wk =   0.0039062
        k(  356) = (  -0.3750000  -0.5000000   0.3750000), wk =   0.0039062
        k(  357) = (  -0.3750000  -0.5000000  -0.5000000), wk =   0.0039062
        k(  358) = (  -0.3750000  -0.5000000  -0.3750000), wk =   0.0039062
        k(  359) = (  -0.3750000  -0.5000000  -0.2500000), wk =   0.0039062
        k(  360) = (  -0.3750000  -0.5000000  -0.1250000), wk =   0.0039062
        k(  361) = (  -0.3750000  -0.3750000   0.0000000), wk =   0.0039062
        k(  362) = (  -0.3750000  -0.3750000   0.1250000), wk =   0.0039062
        k(  363) = (  -0.3750000  -0.3750000   0.2500000), wk =   0.0039062
        k(  364) = (  -0.3750000  -0.3750000   0.3750000), wk =   0.0039062
        k(  365) = (  -0.3750000  -0.3750000  -0.5000000), wk =   0.0039062
        k(  366) = (  -0.3750000  -0.3750000  -0.3750000), wk =   0.0039062
        k(  367) = (  -0.3750000  -0.3750000  -0.2500000), wk =   0.0039062
        k(  368) = (  -0.3750000  -0.3750000  -0.1250000), wk =   0.0039062
        k(  369) = (  -0.3750000  -0.2500000   0.0000000), wk =   0.0039062
        k(  370) = (  -0.3750000  -0.2500000   0.1250000), wk =   0.0039062
        k(  371) = (  -0.3750000  -0.2500000   0.2500000), wk =   0.0039062
        k(  372) = (  -0.3750000  -0.2500000   0.3750000), wk =   0.0039062
        k(  373) = (  -0.3750000  -0.2500000  -0.5000000), wk =   0.0039062
        k(  374) = (  -0.3750000  -0.2500000  -0.3750000), wk =   0.0039062
        k(  375) = (  -0.3750000  -0.2500000  -0.2500000), wk =   0.0039062
        k(  376) = (  -0.3750000  -0.2500000  -0.1250000), wk =   0.0039062
        k(  377) = (  -0.3750000  -0.1250000   0.0000000), wk =   0.0039062
        k(  378) = (  -0.3750000  -0.1250000   0.1250000), wk =   0.0039062
        k(  379) = (  -0.3750000  -0.1250000   0.2500000), wk =   0.0039062
        k(  380) = (  -0.3750000  -0.1250000   0.3750000), wk =   0.0039062
        k(  381) = (  -0.3750000  -0.1250000  -0.5000000), wk =   0.0039062
        k(  382) = (  -0.3750000  -0.1250000  -0.3750000), wk =   0.0039062
        k(  383) = (  -0.3750000  -0.1250000  -0.2500000), wk =   0.0039062
        k(  384) = (  -0.3750000  -0.1250000  -0.1250000), wk =   0.0039062
        k(  385) = (  -0.2500000  -0.0000000   0.0000000), wk =   0.0039062
        k(  386) = (  -0.2500000  -0.0000000   0.1250000), wk =   0.0039062
        k(  387) = (  -0.2500000  -0.0000000   0.2500000), wk =   0.0039062
        k(  388) = (  -0.2500000  -0.0000000   0.3750000), wk =   0.0039062
        k(  389) = (  -0.2500000  -0.0000000  -0.5000000), wk =   0.0039062
        k(  390) = (  -0.2500000  -0.0000000  -0.3750000), wk =   0.0039062
        k(  391) = (  -0.2500000  -0.0000000  -0.2500000), wk =   0.0039062
        k(  392) = (  -0.2500000  -0.0000000  -0.1250000), wk =   0.0039062
        k(  393) = (  -0.2500000   0.1250000   0.0000000), wk =   0.0039062
        k(  394) = (  -0.2500000   0.1250000   0.1250000), wk =   0.0039062
        k(  395) = (  -0.2500000   0.1250000   0.2500000), wk =   0.0039062
        k(  396) = (  -0.2500000   0.1250000   0.3750000), wk =   0.0039062
        k(  397) = (  -0.2500000   0.1250000  -0.5000000), wk =   0.0039062
        k(  398) = (  -0.2500000   0.1250000  -0.3750000), wk =   0.0039062
        k(  399) = (  -0.2500000   0.1250000  -0.2500000), wk =   0.0039062
        k(  400) = (  -0.2500000   0.1250000  -0.1250000), wk =   0.0039062
        k(  401) = (  -0.2500000   0.2500000  -0.0000000), wk =   0.0039062
        k(  402) = (  -0.2500000   0.2500000   0.1250000), wk =   0.0039062
        k(  403) = (  -0.2500000   0.2500000   0.2500000), wk =   0.0039062
        k(  404) = (  -0.2500000   0.2500000   0.3750000), wk =   0.0039062
        k(  405) = (  -0.2500000   0.2500000  -0.5000000), wk =   0.0039062
        k(  406) = (  -0.2500000   0.2500000  -0.3750000), wk =   0.0039062
        k(  407) = (  -0.2500000   0.2500000  -0.2500000), wk =   0.0039062
        k(  408) = (  -0.2500000   0.2500000  -0.1250000), wk =   0.0039062
        k(  409) = (  -0.2500000   0.3750000  -0.0000000), wk =   0.0039062
        k(  410) = (  -0.2500000   0.3750000   0.1250000), wk =   0.0039062
        k(  411) = (  -0.2500000   0.3750000   0.2500000), wk =   0.0039062
        k(  412) = (  -0.2500000   0.3750000   0.3750000), wk =   0.0039062
        k(  413) = (  -0.2500000   0.3750000  -0.5000000), wk =   0.0039062
        k(  414) = (  -0.2500000   0.3750000  -0.3750000), wk =   0.0039062
        k(  415) = (  -0.2500000   0.3750000  -0.2500000), wk =   0.0039062
        k(  416) = (  -0.2500000   0.3750000  -0.1250000), wk =   0.0039062
        k(  417) = (  -0.2500000  -0.5000000   0.0000000), wk =   0.0039062
        k(  418) = (  -0.2500000  -0.5000000   0.1250000), wk =   0.0039062
        k(  419) = (  -0.2500000  -0.5000000   0.2500000), wk =   0.0039062
        k(  420) = (  -0.2500000  -0.5000000   0.3750000), wk =   0.0039062
        k(  421) = (  -0.2500000  -0.5000000  -0.5000000), wk =   0.0039062
        k(  422) = (  -0.2500000  -0.5000000  -0.3750000), wk =   0.0039062
        k(  423) = (  -0.2500000  -0.5000000  -0.2500000), wk =   0.0039062
        k(  424) = (  -0.2500000  -0.5000000  -0.1250000), wk =   0.0039062
        k(  425) = (  -0.2500000  -0.3750000   0.0000000), wk =   0.0039062
        k(  426) = (  -0.2500000  -0.3750000   0.1250000), wk =   0.0039062
        k(  427) = (  -0.2500000  -0.3750000   0.2500000), wk =   0.0039062
        k(  428) = (  -0.2500000  -0.3750000   0.3750000), wk =   0.0039062
        k(  429) = (  -0.2500000  -0.3750000  -0.5000000), wk =   0.0039062
        k(  430) = (  -0.2500000  -0.3750000  -0.3750000), wk =   0.0039062
        k(  431) = (  -0.2500000  -0.3750000  -0.2500000), wk =   0.0039062
        k(  432) = (  -0.2500000  -0.3750000  -0.1250000), wk =   0.0039062
        k(  433) = (  -0.2500000  -0.2500000   0.0000000), wk =   0.0039062
        k(  434) = (  -0.2500000  -0.2500000   0.1250000), wk =   0.0039062
        k(  435) = (  -0.2500000  -0.2500000   0.2500000), wk =   0.0039062
        k(  436) = (  -0.2500000  -0.2500000   0.3750000), wk =   0.0039062
        k(  437) = (  -0.2500000  -0.2500000  -0.5000000), wk =   0.0039062
        k(  438) = (  -0.2500000  -0.2500000  -0.3750000), wk =   0.0039062
        k(  439) = (  -0.2500000  -0.2500000  -0.2500000), wk =   0.0039062
        k(  440) = (  -0.2500000  -0.2500000  -0.1250000), wk =   0.0039062
        k(  441) = (  -0.2500000  -0.1250000   0.0000000), wk =   0.0039062
        k(  442) = (  -0.2500000  -0.1250000   0.1250000), wk =   0.0039062
        k(  443) = (  -0.2500000  -0.1250000   0.2500000), wk =   0.0039062
        k(  444) = (  -0.2500000  -0.1250000   0.3750000), wk =   0.0039062
        k(  445) = (  -0.2500000  -0.1250000  -0.5000000), wk =   0.0039062
        k(  446) = (  -0.2500000  -0.1250000  -0.3750000), wk =   0.0039062
        k(  447) = (  -0.2500000  -0.1250000  -0.2500000), wk =   0.0039062
        k(  448) = (  -0.2500000  -0.1250000  -0.1250000), wk =   0.0039062
        k(  449) = (  -0.1250000  -0.0000000   0.0000000), wk =   0.0039062
        k(  450) = (  -0.1250000  -0.0000000   0.1250000), wk =   0.0039062
        k(  451) = (  -0.1250000  -0.0000000   0.2500000), wk =   0.0039062
        k(  452) = (  -0.1250000  -0.0000000   0.3750000), wk =   0.0039062
        k(  453) = (  -0.1250000   0.0000000  -0.5000000), wk =   0.0039062
        k(  454) = (  -0.1250000  -0.0000000  -0.3750000), wk =   0.0039062
        k(  455) = (  -0.1250000  -0.0000000  -0.2500000), wk =   0.0039062
        k(  456) = (  -0.1250000  -0.0000000  -0.1250000), wk =   0.0039062
        k(  457) = (  -0.1250000   0.1250000  -0.0000000), wk =   0.0039062
        k(  458) = (  -0.1250000   0.1250000   0.1250000), wk =   0.0039062
        k(  459) = (  -0.1250000   0.1250000   0.2500000), wk =   0.0039062
        k(  460) = (  -0.1250000   0.1250000   0.3750000), wk =   0.0039062
        k(  461) = (  -0.1250000   0.1250000  -0.5000000), wk =   0.0039062
        k(  462) = (  -0.1250000   0.1250000  -0.3750000), wk =   0.0039062
        k(  463) = (  -0.1250000   0.1250000  -0.2500000), wk =   0.0039062
        k(  464) = (  -0.1250000   0.1250000  -0.1250000), wk =   0.0039062
        k(  465) = (  -0.1250000   0.2500000  -0.0000000), wk =   0.0039062
        k(  466) = (  -0.1250000   0.2500000   0.1250000), wk =   0.0039062
        k(  467) = (  -0.1250000   0.2500000   0.2500000), wk =   0.0039062
        k(  468) = (  -0.1250000   0.2500000   0.3750000), wk =   0.0039062
        k(  469) = (  -0.1250000   0.2500000  -0.5000000), wk =   0.0039062
        k(  470) = (  -0.1250000   0.2500000  -0.3750000), wk =   0.0039062
        k(  471) = (  -0.1250000   0.2500000  -0.2500000), wk =   0.0039062
        k(  472) = (  -0.1250000   0.2500000  -0.1250000), wk =   0.0039062
        k(  473) = (  -0.1250000   0.3750000  -0.0000000), wk =   0.0039062
        k(  474) = (  -0.1250000   0.3750000   0.1250000), wk =   0.0039062
        k(  475) = (  -0.1250000   0.3750000   0.2500000), wk =   0.0039062
        k(  476) = (  -0.1250000   0.3750000   0.3750000), wk =   0.0039062
        k(  477) = (  -0.1250000   0.3750000  -0.5000000), wk =   0.0039062
        k(  478) = (  -0.1250000   0.3750000  -0.3750000), wk =   0.0039062
        k(  479) = (  -0.1250000   0.3750000  -0.2500000), wk =   0.0039062
        k(  480) = (  -0.1250000   0.3750000  -0.1250000), wk =   0.0039062
        k(  481) = (  -0.1250000  -0.5000000   0.0000000), wk =   0.0039062
        k(  482) = (  -0.1250000  -0.5000000   0.1250000), wk =   0.0039062
        k(  483) = (  -0.1250000  -0.5000000   0.2500000), wk =   0.0039062
        k(  484) = (  -0.1250000  -0.5000000   0.3750000), wk =   0.0039062
        k(  485) = (  -0.1250000  -0.5000000  -0.5000000), wk =   0.0039062
        k(  486) = (  -0.1250000  -0.5000000  -0.3750000), wk =   0.0039062
        k(  487) = (  -0.1250000  -0.5000000  -0.2500000), wk =   0.0039062
[...]

    -2.9619  -1.0651   8.2707  13.4185  14.9453  15.4841  15.8367  16.3645

     occupation numbers 
     1.0000   1.0000   1.0000   0.0000   0.0000   0.0000   0.0000   0.0000

          k =-0.1210 0.0871-0.1426 (   919 PWs)   bands (ev):

    -3.4572   0.0938   6.2375  14.4106  15.3665  15.6383  16.2186  16.9169

     occupation numbers 
     1.0000   1.0000   1.0000   0.0000   0.0000   0.0000   0.0000   0.0000

          k =-0.1238 0.0847-0.0672 (   920 PWs)   bands (ev):

    -3.7434   1.4216   4.4002  14.0453  15.0110  16.5196  17.1096  18.0255

     occupation numbers 
     1.0000   1.0000   1.0000   0.0000   0.0000   0.0000   0.0000   0.0000

          k =-0.1290 0.2242 0.0145 (   932 PWs)   bands (ev):

    -3.0056   3.0832   4.1751  10.6030  12.9400  15.8671  16.5362  17.3361

     occupation numbers 
     1.0000   1.0000   1.0000   0.0000   0.0000   0.0000   0.0000   0.0000

          k =-0.1318 0.2218 0.0899 (   930 PWs)   bands (ev):

    -2.8669   1.8068   5.6965  10.6846  12.8501  15.2653  16.6443  17.4743

     occupation numbers 
     1.0000   1.0000   1.0000   0.0000   0.0000   0.0000   0.0000   0.0000

          k =-0.1346 0.2195 0.1654 (   921 PWs)   bands (ev):

    -2.5190   0.5276   7.5848  10.9488  12.8878  14.2157  15.6677  16.8566

     occupation numbers 
     1.0000   1.0000   1.0000   0.0000   0.0000   0.0000   0.0000   0.0000

          k =-0.1374 0.2171 0.2409 (   920 PWs)   bands (ev):

    -1.9631  -0.5696   9.6318  11.3786  12.7878  13.1655  14.0670  15.9883

     occupation numbers 
     1.0000   1.0000   0.0000   0.0000   0.0000   0.0000   0.0000   0.0000

          k =-0.1178 0.2337-0.2875 (   923 PWs)   bands (ev):

    -1.4698  -1.2005  11.0283  11.5830  12.1275  12.4253  14.0861  15.1385

     occupation numbers 
     1.0000   1.0000   0.0000   0.0000   0.0000   0.0000   0.0000   0.0000

          k =-0.1206 0.2313-0.2120 (   925 PWs)   bands (ev):

    -2.1651  -0.2369   8.9550  11.4344  12.8903  13.8561  14.5609  14.8347

     occupation numbers 
     1.0000   1.0000   1.0000   0.0000   0.0000   0.0000   0.0000   0.0000

          k =-0.1234 0.2290-0.1365 (   919 PWs)   bands (ev):

    -2.6540   0.9219   6.9538  10.9919  13.5281  13.9607  15.3853  16.4594

     occupation numbers 
     1.0000   1.0000   1.0000   0.0000   0.0000   0.0000   0.0000   0.0000

          k =-0.1262 0.2266-0.0610 (   921 PWs)   bands (ev):

    -2.9345   2.2481   5.1356  10.7068  13.1893  14.9570  16.2127  17.4237

     occupation numbers 
     1.0000   1.0000   1.0000   0.0000   0.0000   0.0000   0.0000   0.0000

          k =-0.1313 0.3660 0.0206 (   923 PWs)   bands (ev):

    -1.4630   4.5658   5.6499   6.6397  11.0970  12.4840  13.4431  15.8389

     occupation numbers 
     1.0000   1.0000   1.0000   1.0000   0.0000   0.0000   0.0000   0.0000

          k =-0.1341 0.3637 0.0961 (   932 PWs)   bands (ev):

    -1.3204   3.2822   6.7326   7.1685  10.8635  11.7692  14.4190  16.2464

     occupation numbers 
     1.0000   1.0000   1.0000   1.0000   0.0000   0.0000   0.0000   0.0000

          k =-0.1370 0.3613 0.1716 (   929 PWs)   bands (ev):

    -0.9702   2.0172   7.0259   8.9022  10.2487  11.4300  15.2884  15.7309

     occupation numbers 
     1.0000   1.0000   1.0000   1.0000   0.0000   0.0000   0.0000   0.0000

          k =-0.1398 0.3589 0.2470 (   921 PWs)   bands (ev):

    -0.4133   0.9328   7.5121   8.9758  11.1542  11.6865  14.3826  14.7428

     occupation numbers 
     1.0000   1.0000   1.0000   1.0000   0.0000   0.0000   0.0000   0.0000

          k =-0.1201 0.3755-0.2814 (   922 PWs)   bands (ev):

     0.0436   0.3486   8.1305   8.2319  11.8107  12.8568  12.9492  13.9188

     occupation numbers 
     1.0000   1.0000   1.0000   1.0000   0.0000   0.0000   0.0000   0.0000

          k =-0.1229 0.3732-0.2059 (   921 PWs)   bands (ev):

    -0.6421   1.3093   7.5071   8.9890  10.4232  12.5112  12.9029  15.5744

     occupation numbers 
     1.0000   1.0000   1.0000   1.0000   0.0000   0.0000   0.0000   0.0000

          k =-0.1257 0.3708-0.1304 (   919 PWs)   bands (ev):

    -1.1232   2.4632   7.0174   8.3073  10.2084  11.9171  13.6661  16.1402

     occupation numbers 
     1.0000   1.0000   1.0000   1.0000   0.0000   0.0000   0.0000   0.0000

          k =-0.1285 0.3684-0.0549 (   918 PWs)   bands (ev):

    -1.3971   3.7814   6.5037   6.7811  11.1877  11.6411  14.2446  15.1914

     occupation numbers 
     1.0000   1.0000   1.0000   1.0000   0.0000   0.0000   0.0000   0.0000

          k =-0.1149-0.6268-0.0224 (   925 PWs)   bands (ev):

     0.7512   3.2180   6.7370   7.6304   8.9716  10.1878  10.4546  14.7749

     occupation numbers 
     1.0000   1.0000   1.0000   1.0000   1.0000   0.0000   0.0000   0.0000

          k =-0.1177-0.6292 0.0531 (   925 PWs)   bands (ev):

     0.8961   3.3212   5.4364   7.8421   9.4009  10.1417  11.4992  15.2937

     occupation numbers 
     1.0000   1.0000   1.0000   1.0000   0.0039   0.0000   0.0000   0.0000

          k =-0.1205-0.6316 0.1286 (   928 PWs)   bands (ev):

     1.2465   3.6057   4.2114   6.7331  10.1391  11.2316  13.0665  14.5982

     occupation numbers 
     1.0000   1.0000   1.0000   1.0000   0.0000   0.0000   0.0000   0.0000

          k =-0.1233-0.6339 0.2041 (   928 PWs)   bands (ev):

     1.8010   3.0909   4.1653   5.6870  10.4469  12.8031  13.5383  14.9501

     occupation numbers 
     1.0000   1.0000   1.0000   1.0000   0.0000   0.0000   0.0000   0.0000

          k =-0.1037-0.6173-0.3243 (   931 PWs)   bands (ev):

     2.2236   2.5587   4.7980   4.8698  10.9186  12.1749  14.3307  15.1518

     occupation numbers 
     1.0000   1.0000   1.0000   1.0000   0.0000   0.0000   0.0000   0.0000

          k =-0.1065-0.6197-0.2488 (   926 PWs)   bands (ev):

     1.5516   3.5048   4.1209   5.7534  11.3661  11.4586  12.5938  15.0888

     occupation numbers 
     1.0000   1.0000   1.0000   1.0000   0.0000   0.0000   0.0000   0.0000

          k =-0.1093-0.6221-0.1733 (   926 PWs)   bands (ev):

     1.0799   3.6089   4.6630   6.8168  10.3574  10.7933  12.3814  13.5949

     occupation numbers 
     1.0000   1.0000   1.0000   1.0000   0.0000   0.0000   0.0000   0.0000

          k =-0.1121-0.6244-0.0978 (   924 PWs)   bands (ev):

     0.8126   3.3143   5.9664   7.8941   8.7898  10.2965  11.5056  13.7783

     occupation numbers 
     1.0000   1.0000   1.0000   1.0000   1.0000   0.0000   0.0000   0.0000

          k =-0.1172-0.4850-0.0162 (   914 PWs)   bands (ev):

     0.2649   3.8440   6.3453   7.1283   9.4567   9.7880  11.0401  14.3772

     occupation numbers 
     1.0000   1.0000   1.0000   1.0000   0.0004   0.0000   0.0000   0.0000

          k =-0.1201-0.4874 0.0593 (   913 PWs)   bands (ev):

     0.3783   3.9880   5.1493   8.0864   8.9084   9.5711  12.3761  14.9028

     occupation numbers 
     1.0000   1.0000   1.0000   1.0000   1.0000   0.0000   0.0000   0.0000

          k =-0.1229-0.4897 0.1348 (   926 PWs)   bands (ev):

     0.6976   3.8558   4.3602   7.1391   9.6816  10.4850  13.5189  14.5988

     occupation numbers 
     1.0000   1.0000   1.0000   1.0000   0.0000   0.0000   0.0000   0.0000

          k =-0.1257-0.4921 0.2102 (   930 PWs)   bands (ev):

     1.2216   2.7723   4.8929   6.1263   9.9895  12.2269  12.9589  15.5604

     occupation numbers 
     1.0000   1.0000   1.0000   1.0000   0.0000   0.0000   0.0000   0.0000

          k =-0.1060-0.4755-0.3182 (   924 PWs)   bands (ev):

     1.8569   1.9592   5.2835   5.6307  10.4764  11.6992  14.3878  14.4836

     occupation numbers 
     1.0000   1.0000   1.0000   1.0000   0.0000   0.0000   0.0000   0.0000

          k =-0.1088-0.4779-0.2427 (   925 PWs)   bands (ev):

     1.1609   2.8709   4.6343   6.5515  10.8495  11.1157  12.5025  15.0360

     occupation numbers 
     1.0000   1.0000   1.0000   1.0000   0.0000   0.0000   0.0000   0.0000

          k =-0.1116-0.4802-0.1672 (   922 PWs)   bands (ev):

     0.6572   3.9217   4.2451   7.6121   9.9764  10.7117  11.9516  13.6554

     occupation numbers 
     1.0000   1.0000   1.0000   1.0000   0.0000   0.0000   0.0000   0.0000

          k =-0.1144-0.4826-0.0917 (   916 PWs)   bands (ev):

     0.3581   3.8938   5.3066   8.1108   9.1658  10.0344  11.5441  13.4256

     occupation numbers 
     1.0000   1.0000   1.0000   1.0000   0.9737   0.0000   0.0000   0.0000

          k =-0.1196-0.3431-0.0101 (   913 PWs)   bands (ev):

    -1.8282   4.2803   5.2267   7.4372   9.8587  12.9170  14.0153  14.8776

     occupation numbers 
     1.0000   1.0000   1.0000   1.0000   0.0000   0.0000   0.0000   0.0000

          k =-0.1224-0.3455 0.0654 (   910 PWs)   bands (ev):

    -1.7093   3.0768   6.6282   7.5934   9.7902  11.8348  14.9906  15.3344

     occupation numbers 
     1.0000   1.0000   1.0000   1.0000   0.0000   0.0000   0.0000   0.0000

          k =-0.1252-0.3479 0.1409 (   915 PWs)   bands (ev):

    -1.3825   1.7934   7.8769   8.4990   9.9151  10.7307  14.0758  16.1172

     occupation numbers 
     1.0000   1.0000   1.0000   1.0000   0.0000   0.0000   0.0000   0.0000

          k =-0.1280-0.3503 0.2164 (   922 PWs)   bands (ev):

    -0.8485   0.6867   8.4251   9.5017  10.2185  10.7139  13.0086  14.8327

     occupation numbers 
     1.0000   1.0000   1.0000   0.0001   0.0000   0.0000   0.0000   0.0000

          k =-0.1084-0.3336-0.3120 (   922 PWs)   bands (ev):

    -0.2293  -0.1051   8.7860   9.1189  10.6709  11.7323  12.7624  13.0906

     occupation numbers 
     1.0000   1.0000   1.0000   0.9957   0.0000   0.0000   0.0000   0.0000

          k =-0.1112-0.3360-0.2365 (   926 PWs)   bands (ev):

    -0.9357   0.8317   8.1636   9.6331  10.5077  11.3025  11.6648  15.0595

     occupation numbers 
     1.0000   1.0000   1.0000   0.0000   0.0000   0.0000   0.0000   0.0000

          k =-0.1140-0.3384-0.1611 (   921 PWs)   bands (ev):

    -1.4408   1.9666   7.7138   8.1572  10.5529  11.3282  12.3678  16.1414

     occupation numbers 
     1.0000   1.0000   1.0000   1.0000   0.0000   0.0000   0.0000   0.0000

          k =-0.1168-0.3408-0.0856 (   914 PWs)   bands (ev):

    -1.7386   3.2731   6.3727   7.4888  10.1199  12.4602  13.2504  15.1547

     occupation numbers 
     1.0000   1.0000   1.0000   1.0000   0.0000   0.0000   0.0000   0.0000

          k =-0.1219-0.2013-0.0039 (   919 PWs)   bands (ev):

    -3.2266   2.9092   3.9178  10.6833  11.6681  15.2310  16.7051  17.2571

     occupation numbers 
     1.0000   1.0000   1.0000   0.0000   0.0000   0.0000   0.0000   0.0000

          k =-0.1248-0.2037 0.0715 (   917 PWs)   bands (ev):

    -3.1022   1.6826   5.3677  10.6261  11.7999  15.5997  15.8620  16.8383

     occupation numbers 
     1.0000   1.0000   1.0000   0.0000   0.0000   0.0000   0.0000   0.0000

          k =-0.1276-0.2061 0.1470 (   916 PWs)   bands (ev):

    -2.7684   0.3922   7.2474  10.7568  12.1004  14.4941  15.0167  15.9061

     occupation numbers 
     1.0000   1.0000   1.0000   0.0000   0.0000   0.0000   0.0000   0.0000

          k =-0.1304-0.2084 0.2225 (   916 PWs)   bands (ev):

    -2.2264  -0.7186   9.2916  11.0647  12.3934  13.3848  13.9113  14.2274

     occupation numbers 
     1.0000   1.0000   0.2156   0.0000   0.0000   0.0000   0.0000   0.0000

          k =-0.1107-0.1918-0.3059 (   916 PWs)   bands (ev):

    -1.6343  -1.4756  10.8601  11.3273  11.7875  12.8088  13.3464  13.5467

     occupation numbers 
     1.0000   1.0000   0.0000   0.0000   0.0000   0.0000   0.0000   0.0000

          k =-0.1135-0.1942-0.2304 (   924 PWs)   bands (ev):

    -2.3428  -0.5262   8.8607  11.9340  12.2708  12.3771  14.1208  14.3952

     occupation numbers 
     1.0000   1.0000   1.0000   0.0000   0.0000   0.0000   0.0000   0.0000

          k =-0.1163-0.1966-0.1549 (   919 PWs)   bands (ev):

    -2.8462   0.6209   6.8637  11.3593  11.9505  13.1821  15.2881  16.3774

     occupation numbers 
     1.0000   1.0000   1.0000   0.0000   0.0000   0.0000   0.0000   0.0000

          k =-0.1191-0.1989-0.0794 (   915 PWs)   bands (ev):

    -3.1411   1.9399   5.0339  10.9293  11.7199  14.1825  16.3100  17.7247

     occupation numbers 
     1.0000   1.0000   1.0000   0.0000   0.0000   0.0000   0.0000   0.0000

     the Fermi energy is     9.2585 ev

!    total energy              =     -15.77454106 Ry
     estimated scf accuracy    <       0.00680291 Ry
     smearing contrib. (-TS)   =      -0.00012446 Ry
     internal energy E=F+TS    =     -15.77441660 Ry

     The total energy is F=E-TS. E is the sum of the following terms:
     one-electron contribution =       8.30149065 Ry
     hartree contribution      =       0.10384690 Ry
     xc contribution           =      -4.77087242 Ry
     ewald contribution        =     -19.40888172 Ry

     convergence has been achieved in   1 iterations

     Forces acting on atoms (cartesian axes, Ry/au):

     atom    1 type  1   force =     0.00330685   -0.00148966   -0.00093422
     atom    2 type  1   force =    -0.00330685    0.00148966    0.00093422
     The non-local contrib.  to forces
     atom    1 type  1   force =     0.00642002   -0.00685506    0.00475218
     atom    2 type  1   force =    -0.00643276    0.00684774   -0.00475531
     The ionic contribution  to forces
     atom    1 type  1   force =    -0.03972615    0.01255502    0.01486231
     atom    2 type  1   force =     0.03972615   -0.01255502   -0.01486231
     The local contribution  to forces
     atom    1 type  1   force =     0.03892136   -0.00721287   -0.02456230
     atom    2 type  1   force =    -0.03891648    0.00721164    0.02456194
     The core correction contribution to forces
     atom    1 type  1   force =     0.00000000    0.00000000    0.00000000
     atom    2 type  1   force =     0.00000000    0.00000000    0.00000000
     The Hubbard contrib.    to forces
     atom    1 type  1   force =     0.00000000    0.00000000    0.00000000
     atom    2 type  1   force =     0.00000000    0.00000000    0.00000000
     The SCF correction term to forces
     atom    1 type  1   force =    -0.00231240    0.00001900    0.00401183
     atom    2 type  1   force =     0.00231221   -0.00001895   -0.00401186

     Total force =     0.005297     Total SCF correction =     0.006549
     SCF correction compared to forces is large: reduce conv_thr to get better values


     Computing stress (Cartesian axis) and pressure

          total   stress  (Ry/bohr**3)                   (kbar)     P=     -106.97
  -0.00090297   0.00013757   0.00000670         -132.83       20.24        0.99
   0.00013757  -0.00056138  -0.00008829           20.24      -82.58      -12.99
   0.00000670  -0.00008829  -0.00071706            0.99      -12.99     -105.48

     kinetic stress (kbar)   2702.14     23.78      1.09
                               23.78   2759.57    -14.09
                                1.09    -14.09   2730.57

     local   stress (kbar)   -805.94    231.47    110.66
                              231.47   -868.04     -0.05
                              110.66     -0.05   -823.11

     nonloc. stress (kbar)   3378.48    -31.88    -20.94
                              -31.88   3388.23      1.78
                              -20.94      1.78   3380.45

     hartree stress (kbar)     19.11    -14.48     -4.43
                              -14.48     25.79     -1.30
                               -4.43     -1.30     26.07

     exc-cor stress (kbar)   -990.26      0.00      0.00
                                0.00   -990.26      0.00
                                0.00      0.00   -990.26

     corecor stress (kbar)      0.00      0.00      0.00
                                0.00      0.00      0.00
                                0.00      0.00      0.00

     ewald   stress (kbar)  -4436.36   -188.64    -85.40
                             -188.64  -4397.87      0.68
                              -85.40      0.68  -4429.20

     hubbard stress (kbar)      0.00      0.00      0.00
                                0.00      0.00      0.00
                                0.00      0.00      0.00

     DFT-D   stress (kbar)      0.00      0.00      0.00
                                0.00      0.00      0.00
                                0.00      0.00      0.00

     XDM     stress (kbar)      0.00      0.00      0.00
                                0.00      0.00      0.00
                                0.00      0.00      0.00

     dft-nl  stress (kbar)      0.00      0.00      0.00
                                0.00      0.00      0.00
                                0.00      0.00      0.00

     TS-vdW  stress (kbar)      0.00      0.00      0.00
                                0.00      0.00      0.00
                                0.00      0.00      0.00

     MDB     stress (kbar)      0.00      0.00      0.00
                                0.00      0.00      0.00
                                0.00      0.00      0.00

     3D-RISM stress (kbar)      0.00      0.00      0.00
                                0.00      0.00      0.00
                                0.00      0.00      0.00


     Writing all to output data dir ../tmp/Si/Si.save/ :
     XML data file, charge density, pseudopotentials, collected wavefunctions

     init_run     :      2.33s CPU      2.40s WALL (       1 calls)
     electrons    :     13.69s CPU     13.99s WALL (       1 calls)
     forces       :      0.16s CPU      0.16s WALL (       1 calls)
     stress       :      1.97s CPU      1.99s WALL (       1 calls)

     Called by init_run:
     wfcinit      :      1.99s CPU      2.06s WALL (       1 calls)
     wfcinit:atom :      0.06s CPU      0.07s WALL (     512 calls)
     wfcinit:wfcr :      1.63s CPU      1.68s WALL (     512 calls)
     potinit      :      0.01s CPU      0.01s WALL (       1 calls)
     hinit0       :      0.25s CPU      0.25s WALL (       1 calls)

     Called by electrons:
     c_bands      :     12.23s CPU     12.51s WALL (       2 calls)
     sum_band     :      1.45s CPU      1.47s WALL (       2 calls)
     v_of_rho     :      0.00s CPU      0.00s WALL (       2 calls)
     v_h          :      0.00s CPU      0.00s WALL (       2 calls)
     v_xc         :      0.00s CPU      0.00s WALL (       2 calls)
     mix_rho      :      0.00s CPU      0.00s WALL (       2 calls)

     Called by c_bands:
     init_us_2    :      0.49s CPU      0.50s WALL (    3584 calls)
     cegterg      :     11.97s CPU     12.24s WALL (    1024 calls)

     Called by sum_band:
     sum_band:wei :      0.00s CPU      0.00s WALL (       2 calls)
     sum_band:loo :      1.45s CPU      1.47s WALL (       2 calls)
     sum_band:buf :      0.02s CPU      0.02s WALL (    1024 calls)
     sum_band:ini :      0.14s CPU      0.14s WALL (    1024 calls)

     Called by *egterg:
     cdiaghg      :      0.43s CPU      0.44s WALL (    4496 calls)
     cegterg:over :      0.26s CPU      0.26s WALL (    3984 calls)
     cegterg:upda :      0.22s CPU      0.22s WALL (    3984 calls)
     cegterg:last :      0.24s CPU      0.25s WALL (    3033 calls)
     h_psi        :     12.16s CPU     12.45s WALL (    5520 calls)
     g_psi        :      0.09s CPU      0.09s WALL (    3984 calls)

     Called by h_psi:
     h_psi:calbec :      0.15s CPU      0.16s WALL (    5520 calls)
     vloc_psi     :     11.76s CPU     12.05s WALL (    5520 calls)
     add_vuspsi   :      0.15s CPU      0.15s WALL (    5520 calls)

     General routines
     calbec       :      0.21s CPU      0.22s WALL (    8080 calls)
     fft          :      0.22s CPU      0.23s WALL (      11 calls)
     ffts         :      0.00s CPU      0.00s WALL (       2 calls)
     fftw         :     11.32s CPU     11.58s WALL (   72722 calls)


     PWSCF        :     18.23s CPU     18.74s WALL


   This run was terminated on:  18:59:17   6May2024            

=------------------------------------------------------------------------------=
   JOB DONE.
=------------------------------------------------------------------------------=
