
     Program PWSCF v.7.3.1 starts on  6May2024 at 18:59:28 

     This program is part of the open-source Quantum ESPRESSO suite
     for quantum simulation of materials; please cite
         "P. Giannozzi et al., J. Phys.:Condens. Matter 21 395502 (2009);
         "P. Giannozzi et al., J. Phys.:Condens. Matter 29 465901 (2017);
         "P. Giannozzi et al., J. Chem. Phys. 152 154105 (2020);
          URL http://www.quantum-espresso.org", 
     in publications or presentations arising from this work. More details at
     http://www.quantum-espresso.org/quote

     Serial version
     1902 MiB available memory on the printing compute node when the environment starts

     Reading input from Si3.pw.in

     Current dimensions of program PWSCF are:
     Max number of different atomic species (ntypx) = 10
     Max number of k-points (npk) =  40000
     Max angular momentum in pseudopotentials (lmaxx) =  4


     G-vector sticks info
     --------------------
     sticks:   dense  smooth     PW     G-vecs:    dense   smooth      PW
     Sum         305     305    113                 6819     6819    1465

     Using Slab Decomposition



     bravais-lattice index     =            0
     lattice parameter (alat)  =       5.2098  a.u.
     unit-cell volume          =     199.2728 (a.u.)^3
     number of atoms/cell      =            2
     number of atomic types    =            1
     number of electrons       =         8.00
     number of Kohn-Sham states=            8
     kinetic-energy cutoff     =      40.0000  Ry
     charge density cutoff     =     160.0000  Ry
     scf convergence threshold =      2.0E-02
     mixing beta               =       0.1000
     number of iterations used =            8  plain     mixing
     Exchange-correlation=  SLA  PZ   NOGX NOGC
                           (   1   1   0   0   0   0   0)

     celldm(1)=   5.209838  celldm(2)=   0.000000  celldm(3)=   0.000000
     celldm(4)=   0.000000  celldm(5)=   0.000000  celldm(6)=   0.000000

     crystal axes: (cart. coord. in units of alat)
               a(1) = (   0.999823  -0.000848  -0.018789 )  
               a(2) = (  -0.544920   0.881906   0.007282 )  
               a(3) = (   0.011686   0.008787   1.598785 )  

     reciprocal axes: (cart. coord. in units 2 pi/alat)
               b(1) = (  1.000500  0.618286 -0.010711 )  
               b(2) = (  0.000844  1.134481 -0.006242 )  
               b(3) = (  0.011754  0.002099  0.625378 )  


     PseudoPot. # 1 for Si read from file:
     ../pseudo/Si.pz-vbc.UPF
     MD5 check sum: 6dfa03ddd5817404712e03e4d12deb78
     Pseudo is Norm-conserving, Zval =  4.0
     Generated by new atomic code, or converted to UPF format
     Using radial grid of  431 points,  2 beta functions with: 
                l(1) =   0
                l(2) =   1

     atomic species   valence    mass     pseudopotential
     Si                4.00    28.08600     Si( 1.00)

     No symmetry found


                                    s                        frac. trans.

      isym =  1     identity                                     

 cryst.   s( 1) = (     1          0          0      )
                  (     0          1          0      )
                  (     0          0          1      )

 cart.    s( 1) = (  1.0000000 -0.0000000  0.0000000 )
                  (  0.0000000  1.0000000  0.0000000 )
                  (  0.0000000  0.0000000  1.0000000 )


   Cartesian axes

     site n.     atom                  positions (alat units)
         1        Si     tau(   1) = (  -0.0270838   0.5898515   0.3982874  )
         2        Si     tau(   2) = (   0.4936735   0.2999940   1.1889894  )

   Crystallographic axes

     site n.     atom                  positions (cryst. coord.)
         1        Si     tau(   1) = (  0.3333333  0.6666667  0.2500000  )
         2        Si     tau(   2) = (  0.6666667  0.3333333  0.7500000  )

     number of k points=   512  Fermi-Dirac smearing, width (Ry)=  0.0019
                       cart. coord. in units 2pi/alat
        k(    1) = (   0.0000000   0.0000000   0.0000000), wk =   0.0039062
        k(    2) = (   0.0014693   0.0002624   0.0781722), wk =   0.0039062
        k(    3) = (   0.0029386   0.0005248   0.1563444), wk =   0.0039062
        k(    4) = (   0.0044079   0.0007873   0.2345166), wk =   0.0039062
        k(    5) = (  -0.0058772  -0.0010497  -0.3126888), wk =   0.0039062
        k(    6) = (  -0.0044079  -0.0007873  -0.2345166), wk =   0.0039062
        k(    7) = (  -0.0029386  -0.0005248  -0.1563444), wk =   0.0039062
        k(    8) = (  -0.0014693  -0.0002624  -0.0781722), wk =   0.0039062
        k(    9) = (   0.0001056   0.1418102  -0.0007802), wk =   0.0039062
        k(   10) = (   0.0015748   0.1420726   0.0773920), wk =   0.0039062
        k(   11) = (   0.0030441   0.1423350   0.1555642), wk =   0.0039062
        k(   12) = (   0.0045134   0.1425974   0.2337364), wk =   0.0039062
        k(   13) = (  -0.0057716   0.1407605  -0.3134690), wk =   0.0039062
        k(   14) = (  -0.0043023   0.1410229  -0.2352968), wk =   0.0039062
        k(   15) = (  -0.0028330   0.1412853  -0.1571246), wk =   0.0039062
        k(   16) = (  -0.0013637   0.1415477  -0.0789524), wk =   0.0039062
        k(   17) = (   0.0002111   0.2836203  -0.0015604), wk =   0.0039062
        k(   18) = (   0.0016804   0.2838828   0.0766118), wk =   0.0039062
        k(   19) = (   0.0031497   0.2841452   0.1547840), wk =   0.0039062
        k(   20) = (   0.0046190   0.2844076   0.2329562), wk =   0.0039062
        k(   21) = (  -0.0056660   0.2825706  -0.3142492), wk =   0.0039062
        k(   22) = (  -0.0041967   0.2828331  -0.2360770), wk =   0.0039062
        k(   23) = (  -0.0027275   0.2830955  -0.1579048), wk =   0.0039062
        k(   24) = (  -0.0012582   0.2833579  -0.0797326), wk =   0.0039062
        k(   25) = (   0.0003167   0.4254305  -0.0023406), wk =   0.0039062
        k(   26) = (   0.0017860   0.4256929   0.0758316), wk =   0.0039062
        k(   27) = (   0.0032553   0.4259553   0.1540038), wk =   0.0039062
        k(   28) = (   0.0047245   0.4262178   0.2321760), wk =   0.0039062
        k(   29) = (  -0.0055605   0.4243808  -0.3150294), wk =   0.0039062
        k(   30) = (  -0.0040912   0.4246432  -0.2368572), wk =   0.0039062
        k(   31) = (  -0.0026219   0.4249057  -0.1586850), wk =   0.0039062
        k(   32) = (  -0.0011526   0.4251681  -0.0805128), wk =   0.0039062
        k(   33) = (  -0.0004222  -0.5672407   0.0031208), wk =   0.0039062
        k(   34) = (   0.0010471  -0.5669782   0.0812930), wk =   0.0039062
        k(   35) = (   0.0025163  -0.5667158   0.1594652), wk =   0.0039062
        k(   36) = (   0.0039856  -0.5664534   0.2376374), wk =   0.0039062
        k(   37) = (  -0.0062994  -0.5682904  -0.3095681), wk =   0.0039062
        k(   38) = (  -0.0048301  -0.5680279  -0.2313958), wk =   0.0039062
        k(   39) = (  -0.0033608  -0.5677655  -0.1532236), wk =   0.0039062
        k(   40) = (  -0.0018915  -0.5675031  -0.0750514), wk =   0.0039062
        k(   41) = (  -0.0003167  -0.4254305   0.0023406), wk =   0.0039062
        k(   42) = (   0.0011526  -0.4251681   0.0805128), wk =   0.0039062
        k(   43) = (   0.0026219  -0.4249057   0.1586850), wk =   0.0039062
        k(   44) = (   0.0040912  -0.4246432   0.2368572), wk =   0.0039062
        k(   45) = (  -0.0061938  -0.4264802  -0.3103483), wk =   0.0039062
        k(   46) = (  -0.0047245  -0.4262178  -0.2321760), wk =   0.0039062
        k(   47) = (  -0.0032553  -0.4259553  -0.1540038), wk =   0.0039062
        k(   48) = (  -0.0017860  -0.4256929  -0.0758316), wk =   0.0039062
        k(   49) = (  -0.0002111  -0.2836203   0.0015604), wk =   0.0039062
        k(   50) = (   0.0012582  -0.2833579   0.0797326), wk =   0.0039062
        k(   51) = (   0.0027275  -0.2830955   0.1579048), wk =   0.0039062
        k(   52) = (   0.0041967  -0.2828331   0.2360770), wk =   0.0039062
        k(   53) = (  -0.0060883  -0.2846700  -0.3111284), wk =   0.0039062
        k(   54) = (  -0.0046190  -0.2844076  -0.2329562), wk =   0.0039062
        k(   55) = (  -0.0031497  -0.2841452  -0.1547840), wk =   0.0039062
        k(   56) = (  -0.0016804  -0.2838828  -0.0766118), wk =   0.0039062
        k(   57) = (  -0.0001056  -0.1418102   0.0007802), wk =   0.0039062
        k(   58) = (   0.0013637  -0.1415477   0.0789524), wk =   0.0039062
        k(   59) = (   0.0028330  -0.1412853   0.1571246), wk =   0.0039062
        k(   60) = (   0.0043023  -0.1410229   0.2352968), wk =   0.0039062
        k(   61) = (  -0.0059827  -0.1428599  -0.3119086), wk =   0.0039062
        k(   62) = (  -0.0045134  -0.1425974  -0.2337364), wk =   0.0039062
        k(   63) = (  -0.0030441  -0.1423350  -0.1555642), wk =   0.0039062
        k(   64) = (  -0.0015748  -0.1420726  -0.0773920), wk =   0.0039062
        k(   65) = (   0.1250625   0.0772857  -0.0013389), wk =   0.0039062
        k(   66) = (   0.1265318   0.0775482   0.0768333), wk =   0.0039062
        k(   67) = (   0.1280010   0.0778106   0.1550055), wk =   0.0039062
        k(   68) = (   0.1294703   0.0780730   0.2331777), wk =   0.0039062
        k(   69) = (   0.1191853   0.0762360  -0.3140277), wk =   0.0039062
        k(   70) = (   0.1206546   0.0764985  -0.2358555), wk =   0.0039062
        k(   71) = (   0.1221239   0.0767609  -0.1576833), wk =   0.0039062
        k(   72) = (   0.1235932   0.0770233  -0.0795111), wk =   0.0039062
        k(   73) = (   0.1251680   0.2190959  -0.0021191), wk =   0.0039062
        k(   74) = (   0.1266373   0.2193583   0.0760531), wk =   0.0039062
        k(   75) = (   0.1281066   0.2196207   0.1542253), wk =   0.0039062
        k(   76) = (   0.1295759   0.2198832   0.2323975), wk =   0.0039062
        k(   77) = (   0.1192909   0.2180462  -0.3148079), wk =   0.0039062
        k(   78) = (   0.1207602   0.2183086  -0.2366357), wk =   0.0039062
        k(   79) = (   0.1222295   0.2185711  -0.1584635), wk =   0.0039062
        k(   80) = (   0.1236987   0.2188335  -0.0802913), wk =   0.0039062
        k(   81) = (   0.1252736   0.3609061  -0.0028993), wk =   0.0039062
        k(   82) = (   0.1267429   0.3611685   0.0752729), wk =   0.0039062
        k(   83) = (   0.1282122   0.3614309   0.1534451), wk =   0.0039062
        k(   84) = (   0.1296815   0.3616933   0.2316173), wk =   0.0039062
        k(   85) = (   0.1193964   0.3598564  -0.3155881), wk =   0.0039062
        k(   86) = (   0.1208657   0.3601188  -0.2374159), wk =   0.0039062
        k(   87) = (   0.1223350   0.3603812  -0.1592437), wk =   0.0039062
        k(   88) = (   0.1238043   0.3606436  -0.0810715), wk =   0.0039062
        k(   89) = (   0.1253792   0.5027162  -0.0036795), wk =   0.0039062
        k(   90) = (   0.1268484   0.5029787   0.0744927), wk =   0.0039062
        k(   91) = (   0.1283177   0.5032411   0.1526649), wk =   0.0039062
        k(   92) = (   0.1297870   0.5035035   0.2308371), wk =   0.0039062
        k(   93) = (   0.1195020   0.5016665  -0.3163683), wk =   0.0039062
        k(   94) = (   0.1209713   0.5019290  -0.2381961), wk =   0.0039062
        k(   95) = (   0.1224406   0.5021914  -0.1600239), wk =   0.0039062
        k(   96) = (   0.1239099   0.5024538  -0.0818517), wk =   0.0039062
        k(   97) = (   0.1246402  -0.4899549   0.0017819), wk =   0.0039062
        k(   98) = (   0.1261095  -0.4896925   0.0799541), wk =   0.0039062
        k(   99) = (   0.1275788  -0.4894301   0.1581263), wk =   0.0039062
        k(  100) = (   0.1290481  -0.4891677   0.2362985), wk =   0.0039062
        k(  101) = (   0.1187631  -0.4910046  -0.3109070), wk =   0.0039062
        k(  102) = (   0.1202324  -0.4907422  -0.2327348), wk =   0.0039062
        k(  103) = (   0.1217017  -0.4904798  -0.1545625), wk =   0.0039062
        k(  104) = (   0.1231710  -0.4902174  -0.0763903), wk =   0.0039062
        k(  105) = (   0.1247458  -0.3481448   0.0010017), wk =   0.0039062
        k(  106) = (   0.1262151  -0.3478823   0.0791739), wk =   0.0039062
        k(  107) = (   0.1276844  -0.3476199   0.1573461), wk =   0.0039062
        k(  108) = (   0.1291537  -0.3473575   0.2355183), wk =   0.0039062
        k(  109) = (   0.1188686  -0.3491945  -0.3116872), wk =   0.0039062
        k(  110) = (   0.1203379  -0.3489320  -0.2335150), wk =   0.0039062
        k(  111) = (   0.1218072  -0.3486696  -0.1553427), wk =   0.0039062
        k(  112) = (   0.1232765  -0.3484072  -0.0771705), wk =   0.0039062
        k(  113) = (   0.1248514  -0.2063346   0.0002215), wk =   0.0039062
        k(  114) = (   0.1263206  -0.2060722   0.0783937), wk =   0.0039062
        k(  115) = (   0.1277899  -0.2058098   0.1565659), wk =   0.0039062
        k(  116) = (   0.1292592  -0.2055473   0.2347381), wk =   0.0039062
        k(  117) = (   0.1189742  -0.2073843  -0.3124674), wk =   0.0039062
        k(  118) = (   0.1204435  -0.2071219  -0.2342951), wk =   0.0039062
        k(  119) = (   0.1219128  -0.2068594  -0.1561229), wk =   0.0039062
        k(  120) = (   0.1233821  -0.2065970  -0.0779507), wk =   0.0039062
        k(  121) = (   0.1249569  -0.0645244  -0.0005587), wk =   0.0039062
        k(  122) = (   0.1264262  -0.0642620   0.0776135), wk =   0.0039062
        k(  123) = (   0.1278955  -0.0639996   0.1557857), wk =   0.0039062
        k(  124) = (   0.1293648  -0.0637372   0.2339579), wk =   0.0039062
        k(  125) = (   0.1190798  -0.0655741  -0.3132476), wk =   0.0039062
        k(  126) = (   0.1205491  -0.0653117  -0.2350753), wk =   0.0039062
        k(  127) = (   0.1220183  -0.0650493  -0.1569031), wk =   0.0039062
        k(  128) = (   0.1234876  -0.0647869  -0.0787309), wk =   0.0039062
        k(  129) = (   0.2501249   0.1545715  -0.0026778), wk =   0.0039062
        k(  130) = (   0.2515942   0.1548339   0.0754944), wk =   0.0039062
        k(  131) = (   0.2530635   0.1550963   0.1536666), wk =   0.0039062
        k(  132) = (   0.2545328   0.1553587   0.2318388), wk =   0.0039062
        k(  133) = (   0.2442478   0.1535218  -0.3153667), wk =   0.0039062
        k(  134) = (   0.2457171   0.1537842  -0.2371944), wk =   0.0039062
        k(  135) = (   0.2471864   0.1540466  -0.1590222), wk =   0.0039062
        k(  136) = (   0.2486557   0.1543090  -0.0808500), wk =   0.0039062
        k(  137) = (   0.2502305   0.2963816  -0.0034580), wk =   0.0039062
        k(  138) = (   0.2516998   0.2966440   0.0747142), wk =   0.0039062
        k(  139) = (   0.2531691   0.2969065   0.1528864), wk =   0.0039062
        k(  140) = (   0.2546384   0.2971689   0.2310586), wk =   0.0039062
        k(  141) = (   0.2443534   0.2953319  -0.3161469), wk =   0.0039062
        k(  142) = (   0.2458226   0.2955944  -0.2379746), wk =   0.0039062
        k(  143) = (   0.2472919   0.2958568  -0.1598024), wk =   0.0039062
        k(  144) = (   0.2487612   0.2961192  -0.0816302), wk =   0.0039062
        k(  145) = (   0.2503361   0.4381918  -0.0042382), wk =   0.0039062
        k(  146) = (   0.2518054   0.4384542   0.0739340), wk =   0.0039062
        k(  147) = (   0.2532746   0.4387166   0.1521062), wk =   0.0039062
        k(  148) = (   0.2547439   0.4389791   0.2302784), wk =   0.0039062
        k(  149) = (   0.2444589   0.4371421  -0.3169270), wk =   0.0039062
        k(  150) = (   0.2459282   0.4374045  -0.2387548), wk =   0.0039062
        k(  151) = (   0.2473975   0.4376670  -0.1605826), wk =   0.0039062
        k(  152) = (   0.2488668   0.4379294  -0.0824104), wk =   0.0039062
        k(  153) = (   0.2504416   0.5800020  -0.0050184), wk =   0.0039062
        k(  154) = (   0.2519109   0.5802644   0.0731538), wk =   0.0039062
        k(  155) = (   0.2533802   0.5805268   0.1513260), wk =   0.0039062
        k(  156) = (   0.2548495   0.5807892   0.2294982), wk =   0.0039062
        k(  157) = (   0.2445645   0.5789523  -0.3177072), wk =   0.0039062
        k(  158) = (   0.2460338   0.5792147  -0.2395350), wk =   0.0039062
        k(  159) = (   0.2475030   0.5794771  -0.1613628), wk =   0.0039062
        k(  160) = (   0.2489723   0.5797395  -0.0831906), wk =   0.0039062
        k(  161) = (   0.2497027  -0.4126692   0.0004430), wk =   0.0039062
        k(  162) = (   0.2511720  -0.4124068   0.0786152), wk =   0.0039062
        k(  163) = (   0.2526413  -0.4121444   0.1567874), wk =   0.0039062
        k(  164) = (   0.2541106  -0.4118819   0.2349596), wk =   0.0039062
        k(  165) = (   0.2438256  -0.4137189  -0.3122459), wk =   0.0039062
        k(  166) = (   0.2452948  -0.4134565  -0.2340737), wk =   0.0039062
        k(  167) = (   0.2467641  -0.4131941  -0.1559015), wk =   0.0039062
        k(  168) = (   0.2482334  -0.4129316  -0.0777293), wk =   0.0039062
        k(  169) = (   0.2498083  -0.2708590  -0.0003372), wk =   0.0039062
        k(  170) = (   0.2512776  -0.2705966   0.0778350), wk =   0.0039062
        k(  171) = (   0.2527468  -0.2703342   0.1560072), wk =   0.0039062
        k(  172) = (   0.2542161  -0.2700718   0.2341794), wk =   0.0039062
        k(  173) = (   0.2439311  -0.2719087  -0.3130261), wk =   0.0039062
        k(  174) = (   0.2454004  -0.2716463  -0.2348539), wk =   0.0039062
        k(  175) = (   0.2468697  -0.2713839  -0.1566817), wk =   0.0039062
        k(  176) = (   0.2483390  -0.2711215  -0.0785094), wk =   0.0039062
        k(  177) = (   0.2499138  -0.1290489  -0.0011174), wk =   0.0039062
        k(  178) = (   0.2513831  -0.1287865   0.0770548), wk =   0.0039062
        k(  179) = (   0.2528524  -0.1285240   0.1552270), wk =   0.0039062
        k(  180) = (   0.2543217  -0.1282616   0.2333992), wk =   0.0039062
        k(  181) = (   0.2440367  -0.1300986  -0.3138063), wk =   0.0039062
        k(  182) = (   0.2455060  -0.1298361  -0.2356341), wk =   0.0039062
        k(  183) = (   0.2469753  -0.1295737  -0.1574618), wk =   0.0039062
        k(  184) = (   0.2484445  -0.1293113  -0.0792896), wk =   0.0039062
        k(  185) = (   0.2500194   0.0127613  -0.0018976), wk =   0.0039062
        k(  186) = (   0.2514887   0.0130237   0.0762746), wk =   0.0039062
        k(  187) = (   0.2529580   0.0132861   0.1544468), wk =   0.0039062
        k(  188) = (   0.2544273   0.0135486   0.2326190), wk =   0.0039062
        k(  189) = (   0.2441422   0.0117116  -0.3145865), wk =   0.0039062
        k(  190) = (   0.2456115   0.0119740  -0.2364143), wk =   0.0039062
        k(  191) = (   0.2470808   0.0122365  -0.1582420), wk =   0.0039062
        k(  192) = (   0.2485501   0.0124989  -0.0800698), wk =   0.0039062
        k(  193) = (   0.3751874   0.2318572  -0.0040167), wk =   0.0039062
        k(  194) = (   0.3766567   0.2321196   0.0741555), wk =   0.0039062
        k(  195) = (   0.3781260   0.2323820   0.1523277), wk =   0.0039062
        k(  196) = (   0.3795953   0.2326445   0.2304999), wk =   0.0039062
        k(  197) = (   0.3693103   0.2308075  -0.3167056), wk =   0.0039062
        k(  198) = (   0.3707796   0.2310699  -0.2385334), wk =   0.0039062
        k(  199) = (   0.3722488   0.2313323  -0.1603611), wk =   0.0039062
        k(  200) = (   0.3737181   0.2315948  -0.0821889), wk =   0.0039062
        k(  201) = (   0.3752930   0.3736674  -0.0047969), wk =   0.0039062
        k(  202) = (   0.3767623   0.3739298   0.0733753), wk =   0.0039062
        k(  203) = (   0.3782316   0.3741922   0.1515475), wk =   0.0039062
        k(  204) = (   0.3797008   0.3744546   0.2297197), wk =   0.0039062
        k(  205) = (   0.3694158   0.3726177  -0.3174858), wk =   0.0039062
        k(  206) = (   0.3708851   0.3728801  -0.2393136), wk =   0.0039062
        k(  207) = (   0.3723544   0.3731425  -0.1611413), wk =   0.0039062
        k(  208) = (   0.3738237   0.3734049  -0.0829691), wk =   0.0039062
        k(  209) = (   0.3753985   0.5154775  -0.0055771), wk =   0.0039062
        k(  210) = (   0.3768678   0.5157399   0.0725951), wk =   0.0039062
        k(  211) = (   0.3783371   0.5160024   0.1507673), wk =   0.0039062
        k(  212) = (   0.3798064   0.5162648   0.2289395), wk =   0.0039062
        k(  213) = (   0.3695214   0.5144278  -0.3182660), wk =   0.0039062
        k(  214) = (   0.3709907   0.5146903  -0.2400937), wk =   0.0039062
        k(  215) = (   0.3724600   0.5149527  -0.1619215), wk =   0.0039062
        k(  216) = (   0.3739293   0.5152151  -0.0837493), wk =   0.0039062
        k(  217) = (   0.3755041   0.6572877  -0.0063573), wk =   0.0039062
        k(  218) = (   0.3769734   0.6575501   0.0718149), wk =   0.0039062
        k(  219) = (   0.3784427   0.6578125   0.1499871), wk =   0.0039062
        k(  220) = (   0.3799120   0.6580750   0.2281593), wk =   0.0039062
        k(  221) = (   0.3696269   0.6562380  -0.3190462), wk =   0.0039062
        k(  222) = (   0.3710962   0.6565004  -0.2408739), wk =   0.0039062
        k(  223) = (   0.3725655   0.6567629  -0.1627017), wk =   0.0039062
        k(  224) = (   0.3740348   0.6570253  -0.0845295), wk =   0.0039062
        k(  225) = (   0.3747652  -0.3353835  -0.0008960), wk =   0.0039062
        k(  226) = (   0.3762345  -0.3351211   0.0772763), wk =   0.0039062
        k(  227) = (   0.3777038  -0.3348586   0.1554485), wk =   0.0039062
        k(  228) = (   0.3791730  -0.3345962   0.2336207), wk =   0.0039062
        k(  229) = (   0.3688880  -0.3364332  -0.3135848), wk =   0.0039062
        k(  230) = (   0.3703573  -0.3361707  -0.2354126), wk =   0.0039062
        k(  231) = (   0.3718266  -0.3359083  -0.1572404), wk =   0.0039062
        k(  232) = (   0.3732959  -0.3356459  -0.0790682), wk =   0.0039062
        k(  233) = (   0.3748707  -0.1935733  -0.0016761), wk =   0.0039062
        k(  234) = (   0.3763400  -0.1933109   0.0764961), wk =   0.0039062
        k(  235) = (   0.3778093  -0.1930485   0.1546683), wk =   0.0039062
        k(  236) = (   0.3792786  -0.1927860   0.2328405), wk =   0.0039062
        k(  237) = (   0.3689936  -0.1946230  -0.3143650), wk =   0.0039062
        k(  238) = (   0.3704629  -0.1943606  -0.2361928), wk =   0.0039062
        k(  239) = (   0.3719322  -0.1940982  -0.1580206), wk =   0.0039062
        k(  240) = (   0.3734015  -0.1938357  -0.0798484), wk =   0.0039062
        k(  241) = (   0.3749763  -0.0517631  -0.0024563), wk =   0.0039062
        k(  242) = (   0.3764456  -0.0515007   0.0757159), wk =   0.0039062
        k(  243) = (   0.3779149  -0.0512383   0.1538881), wk =   0.0039062
        k(  244) = (   0.3793842  -0.0509759   0.2320603), wk =   0.0039062
        k(  245) = (   0.3690992  -0.0528128  -0.3151452), wk =   0.0039062
        k(  246) = (   0.3705684  -0.0525504  -0.2369730), wk =   0.0039062
        k(  247) = (   0.3720377  -0.0522880  -0.1588008), wk =   0.0039062
        k(  248) = (   0.3735070  -0.0520256  -0.0806286), wk =   0.0039062
        k(  249) = (   0.3750819   0.0900470  -0.0032365), wk =   0.0039062
        k(  250) = (   0.3765512   0.0903094   0.0749357), wk =   0.0039062
        k(  251) = (   0.3780204   0.0905719   0.1531079), wk =   0.0039062
        k(  252) = (   0.3794897   0.0908343   0.2312801), wk =   0.0039062
        k(  253) = (   0.3692047   0.0889973  -0.3159254), wk =   0.0039062
        k(  254) = (   0.3706740   0.0892598  -0.2377532), wk =   0.0039062
        k(  255) = (   0.3721433   0.0895222  -0.1595810), wk =   0.0039062
        k(  256) = (   0.3736126   0.0897846  -0.0814087), wk =   0.0039062
        k(  257) = (  -0.5002499  -0.3091429   0.0053556), wk =   0.0039062
        k(  258) = (  -0.4987806  -0.3088805   0.0835279), wk =   0.0039062
        k(  259) = (  -0.4973113  -0.3086181   0.1617001), wk =   0.0039062
        k(  260) = (  -0.4958420  -0.3083557   0.2398723), wk =   0.0039062
        k(  261) = (  -0.5061270  -0.3101926  -0.3073332), wk =   0.0039062
        k(  262) = (  -0.5046578  -0.3099302  -0.2291610), wk =   0.0039062
        k(  263) = (  -0.5031885  -0.3096678  -0.1509888), wk =   0.0039062
        k(  264) = (  -0.5017192  -0.3094053  -0.0728166), wk =   0.0039062
        k(  265) = (  -0.5001443  -0.1673328   0.0045754), wk =   0.0039062
        k(  266) = (  -0.4986750  -0.1670703   0.0827477), wk =   0.0039062
        k(  267) = (  -0.4972058  -0.1668079   0.1609199), wk =   0.0039062
        k(  268) = (  -0.4957365  -0.1665455   0.2390921), wk =   0.0039062
        k(  269) = (  -0.5060215  -0.1683824  -0.3081134), wk =   0.0039062
        k(  270) = (  -0.5045522  -0.1681200  -0.2299412), wk =   0.0039062
        k(  271) = (  -0.5030829  -0.1678576  -0.1517690), wk =   0.0039062
        k(  272) = (  -0.5016136  -0.1675952  -0.0735968), wk =   0.0039062
        k(  273) = (  -0.5000388  -0.0255226   0.0037953), wk =   0.0039062
        k(  274) = (  -0.4985695  -0.0252602   0.0819675), wk =   0.0039062
        k(  275) = (  -0.4971002  -0.0249977   0.1601397), wk =   0.0039062
        k(  276) = (  -0.4956309  -0.0247353   0.2383119), wk =   0.0039062
        k(  277) = (  -0.5059159  -0.0265723  -0.3088936), wk =   0.0039062
        k(  278) = (  -0.5044466  -0.0263099  -0.2307214), wk =   0.0039062
        k(  279) = (  -0.5029774  -0.0260474  -0.1525492), wk =   0.0039062
        k(  280) = (  -0.5015081  -0.0257850  -0.0743770), wk =   0.0039062
        k(  281) = (  -0.4999332   0.1162876   0.0030151), wk =   0.0039062
        k(  282) = (  -0.4984639   0.1165500   0.0811873), wk =   0.0039062
        k(  283) = (  -0.4969946   0.1168124   0.1593595), wk =   0.0039062
        k(  284) = (  -0.4955254   0.1170748   0.2375317), wk =   0.0039062
        k(  285) = (  -0.5058104   0.1152379  -0.3096738), wk =   0.0039062
        k(  286) = (  -0.5043411   0.1155003  -0.2315016), wk =   0.0039062
        k(  287) = (  -0.5028718   0.1157627  -0.1533294), wk =   0.0039062
        k(  288) = (  -0.5014025   0.1160252  -0.0751571), wk =   0.0039062
        k(  289) = (  -0.5006721  -0.8763836   0.0084764), wk =   0.0039062
        k(  290) = (  -0.4992028  -0.8761212   0.0866486), wk =   0.0039062
        k(  291) = (  -0.4977336  -0.8758587   0.1648208), wk =   0.0039062
        k(  292) = (  -0.4962643  -0.8755963   0.2429930), wk =   0.0039062
        k(  293) = (  -0.5065493  -0.8774333  -0.3042124), wk =   0.0039062
        k(  294) = (  -0.5050800  -0.8771709  -0.2260402), wk =   0.0039062
        k(  295) = (  -0.5036107  -0.8769084  -0.1478680), wk =   0.0039062
        k(  296) = (  -0.5021414  -0.8766460  -0.0696958), wk =   0.0039062
        k(  297) = (  -0.5005666  -0.7345734   0.0076962), wk =   0.0039062
        k(  298) = (  -0.4990973  -0.7343110   0.0858684), wk =   0.0039062
        k(  299) = (  -0.4976280  -0.7340486   0.1640406), wk =   0.0039062
        k(  300) = (  -0.4961587  -0.7337862   0.2422129), wk =   0.0039062
        k(  301) = (  -0.5064437  -0.7356231  -0.3049926), wk =   0.0039062
        k(  302) = (  -0.5049744  -0.7353607  -0.2268204), wk =   0.0039062
        k(  303) = (  -0.5035051  -0.7350983  -0.1486482), wk =   0.0039062
        k(  304) = (  -0.5020359  -0.7348358  -0.0704760), wk =   0.0039062
        k(  305) = (  -0.5004610  -0.5927633   0.0069160), wk =   0.0039062
        k(  306) = (  -0.4989917  -0.5925008   0.0850882), wk =   0.0039062
        k(  307) = (  -0.4975224  -0.5922384   0.1632605), wk =   0.0039062
        k(  308) = (  -0.4960531  -0.5919760   0.2414327), wk =   0.0039062
        k(  309) = (  -0.5063382  -0.5938129  -0.3057728), wk =   0.0039062
        k(  310) = (  -0.5048689  -0.5935505  -0.2276006), wk =   0.0039062
        k(  311) = (  -0.5033996  -0.5932881  -0.1494284), wk =   0.0039062
        k(  312) = (  -0.5019303  -0.5930257  -0.0712562), wk =   0.0039062
        k(  313) = (  -0.5003555  -0.4509531   0.0061358), wk =   0.0039062
        k(  314) = (  -0.4988862  -0.4506907   0.0843080), wk =   0.0039062
        k(  315) = (  -0.4974169  -0.4504282   0.1624803), wk =   0.0039062
        k(  316) = (  -0.4959476  -0.4501658   0.2406525), wk =   0.0039062
        k(  317) = (  -0.5062326  -0.4520028  -0.3065530), wk =   0.0039062
        k(  318) = (  -0.5047633  -0.4517404  -0.2283808), wk =   0.0039062
        k(  319) = (  -0.5032940  -0.4514779  -0.1502086), wk =   0.0039062
        k(  320) = (  -0.5018247  -0.4512155  -0.0720364), wk =   0.0039062
        k(  321) = (  -0.3751874  -0.2318572   0.0040167), wk =   0.0039062
        k(  322) = (  -0.3737181  -0.2315948   0.0821889), wk =   0.0039062
        k(  323) = (  -0.3722488  -0.2313323   0.1603611), wk =   0.0039062
        k(  324) = (  -0.3707796  -0.2310699   0.2385334), wk =   0.0039062
        k(  325) = (  -0.3810646  -0.2329069  -0.3086721), wk =   0.0039062
        k(  326) = (  -0.3795953  -0.2326445  -0.2304999), wk =   0.0039062
        k(  327) = (  -0.3781260  -0.2323820  -0.1523277), wk =   0.0039062
        k(  328) = (  -0.3766567  -0.2321196  -0.0741555), wk =   0.0039062
        k(  329) = (  -0.3750819  -0.0900470   0.0032365), wk =   0.0039062
        k(  330) = (  -0.3736126  -0.0897846   0.0814087), wk =   0.0039062
        k(  331) = (  -0.3721433  -0.0895222   0.1595810), wk =   0.0039062
        k(  332) = (  -0.3706740  -0.0892598   0.2377532), wk =   0.0039062
        k(  333) = (  -0.3809590  -0.0910967  -0.3094523), wk =   0.0039062
        k(  334) = (  -0.3794897  -0.0908343  -0.2312801), wk =   0.0039062
        k(  335) = (  -0.3780204  -0.0905719  -0.1531079), wk =   0.0039062
        k(  336) = (  -0.3765512  -0.0903094  -0.0749357), wk =   0.0039062
        k(  337) = (  -0.3749763   0.0517631   0.0024563), wk =   0.0039062
        k(  338) = (  -0.3735070   0.0520256   0.0806286), wk =   0.0039062
        k(  339) = (  -0.3720377   0.0522880   0.1588008), wk =   0.0039062
        k(  340) = (  -0.3705684   0.0525504   0.2369730), wk =   0.0039062
        k(  341) = (  -0.3808535   0.0507135  -0.3102325), wk =   0.0039062
        k(  342) = (  -0.3793842   0.0509759  -0.2320603), wk =   0.0039062
        k(  343) = (  -0.3779149   0.0512383  -0.1538881), wk =   0.0039062
        k(  344) = (  -0.3764456   0.0515007  -0.0757159), wk =   0.0039062
        k(  345) = (  -0.3748707   0.1935733   0.0016761), wk =   0.0039062
        k(  346) = (  -0.3734015   0.1938357   0.0798484), wk =   0.0039062
        k(  347) = (  -0.3719322   0.1940982   0.1580206), wk =   0.0039062
        k(  348) = (  -0.3704629   0.1943606   0.2361928), wk =   0.0039062
        k(  349) = (  -0.3807479   0.1925236  -0.3110127), wk =   0.0039062
        k(  350) = (  -0.3792786   0.1927860  -0.2328405), wk =   0.0039062
        k(  351) = (  -0.3778093   0.1930485  -0.1546683), wk =   0.0039062
        k(  352) = (  -0.3763400   0.1933109  -0.0764961), wk =   0.0039062
        k(  353) = (  -0.3756097  -0.7990979   0.0071375), wk =   0.0039062
        k(  354) = (  -0.3741404  -0.7988354   0.0853097), wk =   0.0039062
        k(  355) = (  -0.3726711  -0.7985730   0.1634819), wk =   0.0039062
        k(  356) = (  -0.3712018  -0.7983106   0.2416541), wk =   0.0039062
        k(  357) = (  -0.3814868  -0.8001475  -0.3055513), wk =   0.0039062
        k(  358) = (  -0.3800175  -0.7998851  -0.2273791), wk =   0.0039062
        k(  359) = (  -0.3785482  -0.7996227  -0.1492069), wk =   0.0039062
        k(  360) = (  -0.3770789  -0.7993603  -0.0710347), wk =   0.0039062
        k(  361) = (  -0.3755041  -0.6572877   0.0063573), wk =   0.0039062
        k(  362) = (  -0.3740348  -0.6570253   0.0845295), wk =   0.0039062
        k(  363) = (  -0.3725655  -0.6567629   0.1627017), wk =   0.0039062
        k(  364) = (  -0.3710962  -0.6565004   0.2408739), wk =   0.0039062
        k(  365) = (  -0.3813812  -0.6583374  -0.3063315), wk =   0.0039062
        k(  366) = (  -0.3799120  -0.6580750  -0.2281593), wk =   0.0039062
        k(  367) = (  -0.3784427  -0.6578125  -0.1499871), wk =   0.0039062
        k(  368) = (  -0.3769734  -0.6575501  -0.0718149), wk =   0.0039062
        k(  369) = (  -0.3753985  -0.5154775   0.0055771), wk =   0.0039062
        k(  370) = (  -0.3739293  -0.5152151   0.0837493), wk =   0.0039062
        k(  371) = (  -0.3724600  -0.5149527   0.1619215), wk =   0.0039062
        k(  372) = (  -0.3709907  -0.5146903   0.2400937), wk =   0.0039062
        k(  373) = (  -0.3812757  -0.5165272  -0.3071117), wk =   0.0039062
        k(  374) = (  -0.3798064  -0.5162648  -0.2289395), wk =   0.0039062
        k(  375) = (  -0.3783371  -0.5160024  -0.1507673), wk =   0.0039062
        k(  376) = (  -0.3768678  -0.5157399  -0.0725951), wk =   0.0039062
        k(  377) = (  -0.3752930  -0.3736674   0.0047969), wk =   0.0039062
        k(  378) = (  -0.3738237  -0.3734049   0.0829691), wk =   0.0039062
        k(  379) = (  -0.3723544  -0.3731425   0.1611413), wk =   0.0039062
        k(  380) = (  -0.3708851  -0.3728801   0.2393136), wk =   0.0039062
        k(  381) = (  -0.3811701  -0.3747170  -0.3078919), wk =   0.0039062
        k(  382) = (  -0.3797008  -0.3744546  -0.2297197), wk =   0.0039062
        k(  383) = (  -0.3782316  -0.3741922  -0.1515475), wk =   0.0039062
        k(  384) = (  -0.3767623  -0.3739298  -0.0733753), wk =   0.0039062
        k(  385) = (  -0.2501249  -0.1545715   0.0026778), wk =   0.0039062
        k(  386) = (  -0.2486557  -0.1543090   0.0808500), wk =   0.0039062
        k(  387) = (  -0.2471864  -0.1540466   0.1590222), wk =   0.0039062
        k(  388) = (  -0.2457171  -0.1537842   0.2371944), wk =   0.0039062
        k(  389) = (  -0.2560021  -0.1556211  -0.3100110), wk =   0.0039062
        k(  390) = (  -0.2545328  -0.1553587  -0.2318388), wk =   0.0039062
        k(  391) = (  -0.2530635  -0.1550963  -0.1536666), wk =   0.0039062
        k(  392) = (  -0.2515942  -0.1548339  -0.0754944), wk =   0.0039062
        k(  393) = (  -0.2500194  -0.0127613   0.0018976), wk =   0.0039062
        k(  394) = (  -0.2485501  -0.0124989   0.0800698), wk =   0.0039062
        k(  395) = (  -0.2470808  -0.0122365   0.1582420), wk =   0.0039062
        k(  396) = (  -0.2456115  -0.0119740   0.2364143), wk =   0.0039062
        k(  397) = (  -0.2558965  -0.0138110  -0.3107912), wk =   0.0039062
        k(  398) = (  -0.2544273  -0.0135486  -0.2326190), wk =   0.0039062
        k(  399) = (  -0.2529580  -0.0132861  -0.1544468), wk =   0.0039062
        k(  400) = (  -0.2514887  -0.0130237  -0.0762746), wk =   0.0039062
        k(  401) = (  -0.2499138   0.1290489   0.0011174), wk =   0.0039062
        k(  402) = (  -0.2484445   0.1293113   0.0792896), wk =   0.0039062
        k(  403) = (  -0.2469753   0.1295737   0.1574618), wk =   0.0039062
        k(  404) = (  -0.2455060   0.1298361   0.2356341), wk =   0.0039062
        k(  405) = (  -0.2557910   0.1279992  -0.3115714), wk =   0.0039062
        k(  406) = (  -0.2543217   0.1282616  -0.2333992), wk =   0.0039062
        k(  407) = (  -0.2528524   0.1285240  -0.1552270), wk =   0.0039062
        k(  408) = (  -0.2513831   0.1287865  -0.0770548), wk =   0.0039062
        k(  409) = (  -0.2498083   0.2708590   0.0003372), wk =   0.0039062
        k(  410) = (  -0.2483390   0.2711215   0.0785094), wk =   0.0039062
        k(  411) = (  -0.2468697   0.2713839   0.1566817), wk =   0.0039062
        k(  412) = (  -0.2454004   0.2716463   0.2348539), wk =   0.0039062
        k(  413) = (  -0.2556854   0.2698094  -0.3123516), wk =   0.0039062
        k(  414) = (  -0.2542161   0.2700718  -0.2341794), wk =   0.0039062
        k(  415) = (  -0.2527468   0.2703342  -0.1560072), wk =   0.0039062
        k(  416) = (  -0.2512776   0.2705966  -0.0778350), wk =   0.0039062
        k(  417) = (  -0.2505472  -0.7218121   0.0057986), wk =   0.0039062
        k(  418) = (  -0.2490779  -0.7215497   0.0839708), wk =   0.0039062
        k(  419) = (  -0.2476086  -0.7212873   0.1621430), wk =   0.0039062
        k(  420) = (  -0.2461393  -0.7210249   0.2403152), wk =   0.0039062
        k(  421) = (  -0.2564243  -0.7228618  -0.3068902), wk =   0.0039062
        k(  422) = (  -0.2549550  -0.7225994  -0.2287180), wk =   0.0039062
        k(  423) = (  -0.2534858  -0.7223370  -0.1505458), wk =   0.0039062
        k(  424) = (  -0.2520165  -0.7220746  -0.0723736), wk =   0.0039062
        k(  425) = (  -0.2504416  -0.5800020   0.0050184), wk =   0.0039062
        k(  426) = (  -0.2489723  -0.5797395   0.0831906), wk =   0.0039062
        k(  427) = (  -0.2475030  -0.5794771   0.1613628), wk =   0.0039062
        k(  428) = (  -0.2460338  -0.5792147   0.2395350), wk =   0.0039062
        k(  429) = (  -0.2563188  -0.5810516  -0.3076704), wk =   0.0039062
        k(  430) = (  -0.2548495  -0.5807892  -0.2294982), wk =   0.0039062
        k(  431) = (  -0.2533802  -0.5805268  -0.1513260), wk =   0.0039062
        k(  432) = (  -0.2519109  -0.5802644  -0.0731538), wk =   0.0039062
        k(  433) = (  -0.2503361  -0.4381918   0.0042382), wk =   0.0039062
        k(  434) = (  -0.2488668  -0.4379294   0.0824104), wk =   0.0039062
        k(  435) = (  -0.2473975  -0.4376670   0.1605826), wk =   0.0039062
        k(  436) = (  -0.2459282  -0.4374045   0.2387548), wk =   0.0039062
        k(  437) = (  -0.2562132  -0.4392415  -0.3084506), wk =   0.0039062
        k(  438) = (  -0.2547439  -0.4389791  -0.2302784), wk =   0.0039062
        k(  439) = (  -0.2532746  -0.4387166  -0.1521062), wk =   0.0039062
        k(  440) = (  -0.2518054  -0.4384542  -0.0739340), wk =   0.0039062
        k(  441) = (  -0.2502305  -0.2963816   0.0034580), wk =   0.0039062
        k(  442) = (  -0.2487612  -0.2961192   0.0816302), wk =   0.0039062
        k(  443) = (  -0.2472919  -0.2958568   0.1598024), wk =   0.0039062
        k(  444) = (  -0.2458226  -0.2955944   0.2379746), wk =   0.0039062
        k(  445) = (  -0.2561077  -0.2974313  -0.3092308), wk =   0.0039062
        k(  446) = (  -0.2546384  -0.2971689  -0.2310586), wk =   0.0039062
        k(  447) = (  -0.2531691  -0.2969065  -0.1528864), wk =   0.0039062
        k(  448) = (  -0.2516998  -0.2966440  -0.0747142), wk =   0.0039062
        k(  449) = (  -0.1250625  -0.0772857   0.0013389), wk =   0.0039062
        k(  450) = (  -0.1235932  -0.0770233   0.0795111), wk =   0.0039062
        k(  451) = (  -0.1221239  -0.0767609   0.1576833), wk =   0.0039062
        k(  452) = (  -0.1206546  -0.0764985   0.2358555), wk =   0.0039062
        k(  453) = (  -0.1309396  -0.0783354  -0.3113499), wk =   0.0039062
        k(  454) = (  -0.1294703  -0.0780730  -0.2331777), wk =   0.0039062
        k(  455) = (  -0.1280010  -0.0778106  -0.1550055), wk =   0.0039062
        k(  456) = (  -0.1265318  -0.0775482  -0.0768333), wk =   0.0039062
        k(  457) = (  -0.1249569   0.0645244   0.0005587), wk =   0.0039062
        k(  458) = (  -0.1234876   0.0647869   0.0787309), wk =   0.0039062
        k(  459) = (  -0.1220183   0.0650493   0.1569031), wk =   0.0039062
        k(  460) = (  -0.1205491   0.0653117   0.2350753), wk =   0.0039062
        k(  461) = (  -0.1308341   0.0634748  -0.3121301), wk =   0.0039062
        k(  462) = (  -0.1293648   0.0637372  -0.2339579), wk =   0.0039062
        k(  463) = (  -0.1278955   0.0639996  -0.1557857), wk =   0.0039062
        k(  464) = (  -0.1264262   0.0642620  -0.0776135), wk =   0.0039062
        k(  465) = (  -0.1248514   0.2063346  -0.0002215), wk =   0.0039062
        k(  466) = (  -0.1233821   0.2065970   0.0779507), wk =   0.0039062
        k(  467) = (  -0.1219128   0.2068594   0.1561229), wk =   0.0039062
        k(  468) = (  -0.1204435   0.2071219   0.2342951), wk =   0.0039062
        k(  469) = (  -0.1307285   0.2052849  -0.3129103), wk =   0.0039062
        k(  470) = (  -0.1292592   0.2055473  -0.2347381), wk =   0.0039062
        k(  471) = (  -0.1277899   0.2058098  -0.1565659), wk =   0.0039062
        k(  472) = (  -0.1263206   0.2060722  -0.0783937), wk =   0.0039062
        k(  473) = (  -0.1247458   0.3481448  -0.0010017), wk =   0.0039062
        k(  474) = (  -0.1232765   0.3484072   0.0771705), wk =   0.0039062
        k(  475) = (  -0.1218072   0.3486696   0.1553427), wk =   0.0039062
        k(  476) = (  -0.1203379   0.3489320   0.2335150), wk =   0.0039062
        k(  477) = (  -0.1306229   0.3470951  -0.3136905), wk =   0.0039062
        k(  478) = (  -0.1291537   0.3473575  -0.2355183), wk =   0.0039062
        k(  479) = (  -0.1276844   0.3476199  -0.1573461), wk =   0.0039062
        k(  480) = (  -0.1262151   0.3478823  -0.0791739), wk =   0.0039062
        k(  481) = (  -0.1254847  -0.6445264   0.0044597), wk =   0.0039062
        k(  482) = (  -0.1240154  -0.6442640   0.0826319), wk =   0.0039062
        k(  483) = (  -0.1225461  -0.6440016   0.1608041), wk =   0.0039062
        k(  484) = (  -0.1210768  -0.6437391   0.2389763), wk =   0.0039062
        k(  485) = (  -0.1313619  -0.6455761  -0.3082291), wk =   0.0039062
        k(  486) = (  -0.1298926  -0.6453137  -0.2300569), wk =   0.0039062
        k(  487) = (  -0.1284233  -0.6450512  -0.1518847), wk =   0.0039062
        k(  488) = (  -0.1269540  -0.6447888  -0.0737125), wk =   0.0039062
        k(  489) = (  -0.1253792  -0.5027162   0.0036795), wk =   0.0039062
        k(  490) = (  -0.1239099  -0.5024538   0.0818517), wk =   0.0039062
        k(  491) = (  -0.1224406  -0.5021914   0.1600239), wk =   0.0039062
        k(  492) = (  -0.1209713  -0.5019290   0.2381961), wk =   0.0039062
        k(  493) = (  -0.1312563  -0.5037659  -0.3090093), wk =   0.0039062
        k(  494) = (  -0.1297870  -0.5035035  -0.2308371), wk =   0.0039062
        k(  495) = (  -0.1283177  -0.5032411  -0.1526649), wk =   0.0039062
        k(  496) = (  -0.1268484  -0.5029787  -0.0744927), wk =   0.0039062
        k(  497) = (  -0.1252736  -0.3609061   0.0028993), wk =   0.0039062
        k(  498) = (  -0.1238043  -0.3606436   0.0810715), wk =   0.0039062
        k(  499) = (  -0.1223350  -0.3603812   0.1592437), wk =   0.0039062
        k(  500) = (  -0.1208657  -0.3601188   0.2374159), wk =   0.0039062
        k(  501) = (  -0.1311507  -0.3619558  -0.3097895), wk =   0.0039062
        k(  502) = (  -0.1296815  -0.3616933  -0.2316173), wk =   0.0039062
        k(  503) = (  -0.1282122  -0.3614309  -0.1534451), wk =   0.0039062
        k(  504) = (  -0.1267429  -0.3611685  -0.0752729), wk =   0.0039062
        k(  505) = (  -0.1251680  -0.2190959   0.0021191), wk =   0.0039062
        k(  506) = (  -0.1236987  -0.2188335   0.0802913), wk =   0.0039062
        k(  507) = (  -0.1222295  -0.2185711   0.1584635), wk =   0.0039062
        k(  508) = (  -0.1207602  -0.2183086   0.2366357), wk =   0.0039062
        k(  509) = (  -0.1310452  -0.2201456  -0.3105697), wk =   0.0039062
        k(  510) = (  -0.1295759  -0.2198832  -0.2323975), wk =   0.0039062
        k(  511) = (  -0.1281066  -0.2196207  -0.1542253), wk =   0.0039062
        k(  512) = (  -0.1266373  -0.2193583  -0.0760531), wk =   0.0039062

                       cryst. coord.
        k(    1) = (   0.0000000   0.0000000   0.0000000), wk =   0.0039062
        k(    2) = (   0.0000000  -0.0000000   0.1250000), wk =   0.0039062
        k(    3) = (   0.0000000  -0.0000000   0.2500000), wk =   0.0039062
        k(    4) = (   0.0000000  -0.0000000   0.3750000), wk =   0.0039062
        k(    5) = (  -0.0000000   0.0000000  -0.5000000), wk =   0.0039062
        k(    6) = (  -0.0000000   0.0000000  -0.3750000), wk =   0.0039062
        k(    7) = (  -0.0000000   0.0000000  -0.2500000), wk =   0.0039062
        k(    8) = (  -0.0000000   0.0000000  -0.1250000), wk =   0.0039062
        k(    9) = (   0.0000000   0.1250000   0.0000000), wk =   0.0039062
        k(   10) = (   0.0000000   0.1250000   0.1250000), wk =   0.0039062
        k(   11) = (   0.0000000   0.1250000   0.2500000), wk =   0.0039062
        k(   12) = (   0.0000000   0.1250000   0.3750000), wk =   0.0039062
        k(   13) = (  -0.0000000   0.1250000  -0.5000000), wk =   0.0039062
        k(   14) = (   0.0000000   0.1250000  -0.3750000), wk =   0.0039062
        k(   15) = (  -0.0000000   0.1250000  -0.2500000), wk =   0.0039062
        k(   16) = (  -0.0000000   0.1250000  -0.1250000), wk =   0.0039062
        k(   17) = (   0.0000000   0.2500000   0.0000000), wk =   0.0039062
        k(   18) = (   0.0000000   0.2500000   0.1250000), wk =   0.0039062
        k(   19) = (   0.0000000   0.2500000   0.2500000), wk =   0.0039062
        k(   20) = (   0.0000000   0.2500000   0.3750000), wk =   0.0039062
        k(   21) = (  -0.0000000   0.2500000  -0.5000000), wk =   0.0039062
        k(   22) = (   0.0000000   0.2500000  -0.3750000), wk =   0.0039062
        k(   23) = (  -0.0000000   0.2500000  -0.2500000), wk =   0.0039062
        k(   24) = (  -0.0000000   0.2500000  -0.1250000), wk =   0.0039062
        k(   25) = (   0.0000000   0.3750000  -0.0000000), wk =   0.0039062
        k(   26) = (   0.0000000   0.3750000   0.1250000), wk =   0.0039062
        k(   27) = (   0.0000000   0.3750000   0.2500000), wk =   0.0039062
        k(   28) = (   0.0000000   0.3750000   0.3750000), wk =   0.0039062
        k(   29) = (  -0.0000000   0.3750000  -0.5000000), wk =   0.0039062
        k(   30) = (   0.0000000   0.3750000  -0.3750000), wk =   0.0039062
        k(   31) = (   0.0000000   0.3750000  -0.2500000), wk =   0.0039062
        k(   32) = (   0.0000000   0.3750000  -0.1250000), wk =   0.0039062
        k(   33) = (  -0.0000000  -0.5000000   0.0000000), wk =   0.0039062
        k(   34) = (   0.0000000  -0.5000000   0.1250000), wk =   0.0039062
        k(   35) = (   0.0000000  -0.5000000   0.2500000), wk =   0.0039062
        k(   36) = (   0.0000000  -0.5000000   0.3750000), wk =   0.0039062
        k(   37) = (  -0.0000000  -0.5000000  -0.5000000), wk =   0.0039062
        k(   38) = (   0.0000000  -0.5000000  -0.3750000), wk =   0.0039062
        k(   39) = (   0.0000000  -0.5000000  -0.2500000), wk =   0.0039062
        k(   40) = (  -0.0000000  -0.5000000  -0.1250000), wk =   0.0039062
        k(   41) = (  -0.0000000  -0.3750000   0.0000000), wk =   0.0039062
        k(   42) = (   0.0000000  -0.3750000   0.1250000), wk =   0.0039062
        k(   43) = (   0.0000000  -0.3750000   0.2500000), wk =   0.0039062
        k(   44) = (   0.0000000  -0.3750000   0.3750000), wk =   0.0039062
        k(   45) = (  -0.0000000  -0.3750000  -0.5000000), wk =   0.0039062
        k(   46) = (   0.0000000  -0.3750000  -0.3750000), wk =   0.0039062
        k(   47) = (  -0.0000000  -0.3750000  -0.2500000), wk =   0.0039062
        k(   48) = (  -0.0000000  -0.3750000  -0.1250000), wk =   0.0039062
        k(   49) = (  -0.0000000  -0.2500000   0.0000000), wk =   0.0039062
        k(   50) = (   0.0000000  -0.2500000   0.1250000), wk =   0.0039062
        k(   51) = (   0.0000000  -0.2500000   0.2500000), wk =   0.0039062
        k(   52) = (   0.0000000  -0.2500000   0.3750000), wk =   0.0039062
        k(   53) = (  -0.0000000  -0.2500000  -0.5000000), wk =   0.0039062
        k(   54) = (   0.0000000  -0.2500000  -0.3750000), wk =   0.0039062
        k(   55) = (  -0.0000000  -0.2500000  -0.2500000), wk =   0.0039062
        k(   56) = (   0.0000000  -0.2500000  -0.1250000), wk =   0.0039062
        k(   57) = (  -0.0000000  -0.1250000   0.0000000), wk =   0.0039062
        k(   58) = (   0.0000000  -0.1250000   0.1250000), wk =   0.0039062
        k(   59) = (   0.0000000  -0.1250000   0.2500000), wk =   0.0039062
        k(   60) = (   0.0000000  -0.1250000   0.3750000), wk =   0.0039062
        k(   61) = (   0.0000000  -0.1250000  -0.5000000), wk =   0.0039062
        k(   62) = (  -0.0000000  -0.1250000  -0.3750000), wk =   0.0039062
        k(   63) = (  -0.0000000  -0.1250000  -0.2500000), wk =   0.0039062
        k(   64) = (  -0.0000000  -0.1250000  -0.1250000), wk =   0.0039062
        k(   65) = (   0.1250000  -0.0000000   0.0000000), wk =   0.0039062
        k(   66) = (   0.1250000  -0.0000000   0.1250000), wk =   0.0039062
        k(   67) = (   0.1250000  -0.0000000   0.2500000), wk =   0.0039062
        k(   68) = (   0.1250000  -0.0000000   0.3750000), wk =   0.0039062
        k(   69) = (   0.1250000  -0.0000000  -0.5000000), wk =   0.0039062
        k(   70) = (   0.1250000  -0.0000000  -0.3750000), wk =   0.0039062
        k(   71) = (   0.1250000  -0.0000000  -0.2500000), wk =   0.0039062
        k(   72) = (   0.1250000  -0.0000000  -0.1250000), wk =   0.0039062
        k(   73) = (   0.1250000   0.1250000   0.0000000), wk =   0.0039062
        k(   74) = (   0.1250000   0.1250000   0.1250000), wk =   0.0039062
        k(   75) = (   0.1250000   0.1250000   0.2500000), wk =   0.0039062
        k(   76) = (   0.1250000   0.1250000   0.3750000), wk =   0.0039062
        k(   77) = (   0.1250000   0.1250000  -0.5000000), wk =   0.0039062
        k(   78) = (   0.1250000   0.1250000  -0.3750000), wk =   0.0039062
        k(   79) = (   0.1250000   0.1250000  -0.2500000), wk =   0.0039062
        k(   80) = (   0.1250000   0.1250000  -0.1250000), wk =   0.0039062
        k(   81) = (   0.1250000   0.2500000   0.0000000), wk =   0.0039062
        k(   82) = (   0.1250000   0.2500000   0.1250000), wk =   0.0039062
        k(   83) = (   0.1250000   0.2500000   0.2500000), wk =   0.0039062
        k(   84) = (   0.1250000   0.2500000   0.3750000), wk =   0.0039062
        k(   85) = (   0.1250000   0.2500000  -0.5000000), wk =   0.0039062
        k(   86) = (   0.1250000   0.2500000  -0.3750000), wk =   0.0039062
        k(   87) = (   0.1250000   0.2500000  -0.2500000), wk =   0.0039062
        k(   88) = (   0.1250000   0.2500000  -0.1250000), wk =   0.0039062
        k(   89) = (   0.1250000   0.3750000   0.0000000), wk =   0.0039062
        k(   90) = (   0.1250000   0.3750000   0.1250000), wk =   0.0039062
        k(   91) = (   0.1250000   0.3750000   0.2500000), wk =   0.0039062
        k(   92) = (   0.1250000   0.3750000   0.3750000), wk =   0.0039062
        k(   93) = (   0.1250000   0.3750000  -0.5000000), wk =   0.0039062
        k(   94) = (   0.1250000   0.3750000  -0.3750000), wk =   0.0039062
        k(   95) = (   0.1250000   0.3750000  -0.2500000), wk =   0.0039062
        k(   96) = (   0.1250000   0.3750000  -0.1250000), wk =   0.0039062
        k(   97) = (   0.1250000  -0.5000000   0.0000000), wk =   0.0039062
        k(   98) = (   0.1250000  -0.5000000   0.1250000), wk =   0.0039062
        k(   99) = (   0.1250000  -0.5000000   0.2500000), wk =   0.0039062
        k(  100) = (   0.1250000  -0.5000000   0.3750000), wk =   0.0039062
        k(  101) = (   0.1250000  -0.5000000  -0.5000000), wk =   0.0039062
        k(  102) = (   0.1250000  -0.5000000  -0.3750000), wk =   0.0039062
        k(  103) = (   0.1250000  -0.5000000  -0.2500000), wk =   0.0039062
        k(  104) = (   0.1250000  -0.5000000  -0.1250000), wk =   0.0039062
        k(  105) = (   0.1250000  -0.3750000   0.0000000), wk =   0.0039062
        k(  106) = (   0.1250000  -0.3750000   0.1250000), wk =   0.0039062
        k(  107) = (   0.1250000  -0.3750000   0.2500000), wk =   0.0039062
        k(  108) = (   0.1250000  -0.3750000   0.3750000), wk =   0.0039062
        k(  109) = (   0.1250000  -0.3750000  -0.5000000), wk =   0.0039062
        k(  110) = (   0.1250000  -0.3750000  -0.3750000), wk =   0.0039062
        k(  111) = (   0.1250000  -0.3750000  -0.2500000), wk =   0.0039062
        k(  112) = (   0.1250000  -0.3750000  -0.1250000), wk =   0.0039062
        k(  113) = (   0.1250000  -0.2500000   0.0000000), wk =   0.0039062
        k(  114) = (   0.1250000  -0.2500000   0.1250000), wk =   0.0039062
        k(  115) = (   0.1250000  -0.2500000   0.2500000), wk =   0.0039062
        k(  116) = (   0.1250000  -0.2500000   0.3750000), wk =   0.0039062
        k(  117) = (   0.1250000  -0.2500000  -0.5000000), wk =   0.0039062
        k(  118) = (   0.1250000  -0.2500000  -0.3750000), wk =   0.0039062
        k(  119) = (   0.1250000  -0.2500000  -0.2500000), wk =   0.0039062
        k(  120) = (   0.1250000  -0.2500000  -0.1250000), wk =   0.0039062
        k(  121) = (   0.1250000  -0.1250000   0.0000000), wk =   0.0039062
        k(  122) = (   0.1250000  -0.1250000   0.1250000), wk =   0.0039062
        k(  123) = (   0.1250000  -0.1250000   0.2500000), wk =   0.0039062
        k(  124) = (   0.1250000  -0.1250000   0.3750000), wk =   0.0039062
        k(  125) = (   0.1250000  -0.1250000  -0.5000000), wk =   0.0039062
        k(  126) = (   0.1250000  -0.1250000  -0.3750000), wk =   0.0039062
        k(  127) = (   0.1250000  -0.1250000  -0.2500000), wk =   0.0039062
        k(  128) = (   0.1250000  -0.1250000  -0.1250000), wk =   0.0039062
        k(  129) = (   0.2500000  -0.0000000   0.0000000), wk =   0.0039062
        k(  130) = (   0.2500000  -0.0000000   0.1250000), wk =   0.0039062
        k(  131) = (   0.2500000  -0.0000000   0.2500000), wk =   0.0039062
        k(  132) = (   0.2500000  -0.0000000   0.3750000), wk =   0.0039062
        k(  133) = (   0.2500000  -0.0000000  -0.5000000), wk =   0.0039062
        k(  134) = (   0.2500000  -0.0000000  -0.3750000), wk =   0.0039062
        k(  135) = (   0.2500000  -0.0000000  -0.2500000), wk =   0.0039062
        k(  136) = (   0.2500000  -0.0000000  -0.1250000), wk =   0.0039062
        k(  137) = (   0.2500000   0.1250000   0.0000000), wk =   0.0039062
        k(  138) = (   0.2500000   0.1250000   0.1250000), wk =   0.0039062
        k(  139) = (   0.2500000   0.1250000   0.2500000), wk =   0.0039062
        k(  140) = (   0.2500000   0.1250000   0.3750000), wk =   0.0039062
        k(  141) = (   0.2500000   0.1250000  -0.5000000), wk =   0.0039062
        k(  142) = (   0.2500000   0.1250000  -0.3750000), wk =   0.0039062
        k(  143) = (   0.2500000   0.1250000  -0.2500000), wk =   0.0039062
        k(  144) = (   0.2500000   0.1250000  -0.1250000), wk =   0.0039062
        k(  145) = (   0.2500000   0.2500000   0.0000000), wk =   0.0039062
        k(  146) = (   0.2500000   0.2500000   0.1250000), wk =   0.0039062
        k(  147) = (   0.2500000   0.2500000   0.2500000), wk =   0.0039062
        k(  148) = (   0.2500000   0.2500000   0.3750000), wk =   0.0039062
        k(  149) = (   0.2500000   0.2500000  -0.5000000), wk =   0.0039062
        k(  150) = (   0.2500000   0.2500000  -0.3750000), wk =   0.0039062
        k(  151) = (   0.2500000   0.2500000  -0.2500000), wk =   0.0039062
        k(  152) = (   0.2500000   0.2500000  -0.1250000), wk =   0.0039062
        k(  153) = (   0.2500000   0.3750000   0.0000000), wk =   0.0039062
        k(  154) = (   0.2500000   0.3750000   0.1250000), wk =   0.0039062
        k(  155) = (   0.2500000   0.3750000   0.2500000), wk =   0.0039062
        k(  156) = (   0.2500000   0.3750000   0.3750000), wk =   0.0039062
        k(  157) = (   0.2500000   0.3750000  -0.5000000), wk =   0.0039062
        k(  158) = (   0.2500000   0.3750000  -0.3750000), wk =   0.0039062
        k(  159) = (   0.2500000   0.3750000  -0.2500000), wk =   0.0039062
        k(  160) = (   0.2500000   0.3750000  -0.1250000), wk =   0.0039062
        k(  161) = (   0.2500000  -0.5000000   0.0000000), wk =   0.0039062
        k(  162) = (   0.2500000  -0.5000000   0.1250000), wk =   0.0039062
        k(  163) = (   0.2500000  -0.5000000   0.2500000), wk =   0.0039062
        k(  164) = (   0.2500000  -0.5000000   0.3750000), wk =   0.0039062
        k(  165) = (   0.2500000  -0.5000000  -0.5000000), wk =   0.0039062
        k(  166) = (   0.2500000  -0.5000000  -0.3750000), wk =   0.0039062
        k(  167) = (   0.2500000  -0.5000000  -0.2500000), wk =   0.0039062
        k(  168) = (   0.2500000  -0.5000000  -0.1250000), wk =   0.0039062
        k(  169) = (   0.2500000  -0.3750000   0.0000000), wk =   0.0039062
        k(  170) = (   0.2500000  -0.3750000   0.1250000), wk =   0.0039062
        k(  171) = (   0.2500000  -0.3750000   0.2500000), wk =   0.0039062
        k(  172) = (   0.2500000  -0.3750000   0.3750000), wk =   0.0039062
        k(  173) = (   0.2500000  -0.3750000  -0.5000000), wk =   0.0039062
        k(  174) = (   0.2500000  -0.3750000  -0.3750000), wk =   0.0039062
        k(  175) = (   0.2500000  -0.3750000  -0.2500000), wk =   0.0039062
        k(  176) = (   0.2500000  -0.3750000  -0.1250000), wk =   0.0039062
        k(  177) = (   0.2500000  -0.2500000   0.0000000), wk =   0.0039062
        k(  178) = (   0.2500000  -0.2500000   0.1250000), wk =   0.0039062
        k(  179) = (   0.2500000  -0.2500000   0.2500000), wk =   0.0039062
        k(  180) = (   0.2500000  -0.2500000   0.3750000), wk =   0.0039062
        k(  181) = (   0.2500000  -0.2500000  -0.5000000), wk =   0.0039062
        k(  182) = (   0.2500000  -0.2500000  -0.3750000), wk =   0.0039062
        k(  183) = (   0.2500000  -0.2500000  -0.2500000), wk =   0.0039062
        k(  184) = (   0.2500000  -0.2500000  -0.1250000), wk =   0.0039062
        k(  185) = (   0.2500000  -0.1250000   0.0000000), wk =   0.0039062
        k(  186) = (   0.2500000  -0.1250000   0.1250000), wk =   0.0039062
        k(  187) = (   0.2500000  -0.1250000   0.2500000), wk =   0.0039062
        k(  188) = (   0.2500000  -0.1250000   0.3750000), wk =   0.0039062
        k(  189) = (   0.2500000  -0.1250000  -0.5000000), wk =   0.0039062
        k(  190) = (   0.2500000  -0.1250000  -0.3750000), wk =   0.0039062
        k(  191) = (   0.2500000  -0.1250000  -0.2500000), wk =   0.0039062
        k(  192) = (   0.2500000  -0.1250000  -0.1250000), wk =   0.0039062
        k(  193) = (   0.3750000  -0.0000000   0.0000000), wk =   0.0039062
        k(  194) = (   0.3750000  -0.0000000   0.1250000), wk =   0.0039062
        k(  195) = (   0.3750000  -0.0000000   0.2500000), wk =   0.0039062
        k(  196) = (   0.3750000  -0.0000000   0.3750000), wk =   0.0039062
        k(  197) = (   0.3750000  -0.0000000  -0.5000000), wk =   0.0039062
        k(  198) = (   0.3750000  -0.0000000  -0.3750000), wk =   0.0039062
        k(  199) = (   0.3750000  -0.0000000  -0.2500000), wk =   0.0039062
        k(  200) = (   0.3750000  -0.0000000  -0.1250000), wk =   0.0039062
        k(  201) = (   0.3750000   0.1250000   0.0000000), wk =   0.0039062
        k(  202) = (   0.3750000   0.1250000   0.1250000), wk =   0.0039062
        k(  203) = (   0.3750000   0.1250000   0.2500000), wk =   0.0039062
        k(  204) = (   0.3750000   0.1250000   0.3750000), wk =   0.0039062
        k(  205) = (   0.3750000   0.1250000  -0.5000000), wk =   0.0039062
        k(  206) = (   0.3750000   0.1250000  -0.3750000), wk =   0.0039062
        k(  207) = (   0.3750000   0.1250000  -0.2500000), wk =   0.0039062
        k(  208) = (   0.3750000   0.1250000  -0.1250000), wk =   0.0039062
        k(  209) = (   0.3750000   0.2500000   0.0000000), wk =   0.0039062
        k(  210) = (   0.3750000   0.2500000   0.1250000), wk =   0.0039062
        k(  211) = (   0.3750000   0.2500000   0.2500000), wk =   0.0039062
        k(  212) = (   0.3750000   0.2500000   0.3750000), wk =   0.0039062
        k(  213) = (   0.3750000   0.2500000  -0.5000000), wk =   0.0039062
        k(  214) = (   0.3750000   0.2500000  -0.3750000), wk =   0.0039062
        k(  215) = (   0.3750000   0.2500000  -0.2500000), wk =   0.0039062
        k(  216) = (   0.3750000   0.2500000  -0.1250000), wk =   0.0039062
        k(  217) = (   0.3750000   0.3750000   0.0000000), wk =   0.0039062
        k(  218) = (   0.3750000   0.3750000   0.1250000), wk =   0.0039062
        k(  219) = (   0.3750000   0.3750000   0.2500000), wk =   0.0039062
        k(  220) = (   0.3750000   0.3750000   0.3750000), wk =   0.0039062
        k(  221) = (   0.3750000   0.3750000  -0.5000000), wk =   0.0039062
        k(  222) = (   0.3750000   0.3750000  -0.3750000), wk =   0.0039062
        k(  223) = (   0.3750000   0.3750000  -0.2500000), wk =   0.0039062
        k(  224) = (   0.3750000   0.3750000  -0.1250000), wk =   0.0039062
        k(  225) = (   0.3750000  -0.5000000   0.0000000), wk =   0.0039062
        k(  226) = (   0.3750000  -0.5000000   0.1250000), wk =   0.0039062
        k(  227) = (   0.3750000  -0.5000000   0.2500000), wk =   0.0039062
        k(  228) = (   0.3750000  -0.5000000   0.3750000), wk =   0.0039062
        k(  229) = (   0.3750000  -0.5000000  -0.5000000), wk =   0.0039062
        k(  230) = (   0.3750000  -0.5000000  -0.3750000), wk =   0.0039062
        k(  231) = (   0.3750000  -0.5000000  -0.2500000), wk =   0.0039062
        k(  232) = (   0.3750000  -0.5000000  -0.1250000), wk =   0.0039062
        k(  233) = (   0.3750000  -0.3750000   0.0000000), wk =   0.0039062
        k(  234) = (   0.3750000  -0.3750000   0.1250000), wk =   0.0039062
        k(  235) = (   0.3750000  -0.3750000   0.2500000), wk =   0.0039062
        k(  236) = (   0.3750000  -0.3750000   0.3750000), wk =   0.0039062
        k(  237) = (   0.3750000  -0.3750000  -0.5000000), wk =   0.0039062
        k(  238) = (   0.3750000  -0.3750000  -0.3750000), wk =   0.0039062
        k(  239) = (   0.3750000  -0.3750000  -0.2500000), wk =   0.0039062
        k(  240) = (   0.3750000  -0.3750000  -0.1250000), wk =   0.0039062
        k(  241) = (   0.3750000  -0.2500000   0.0000000), wk =   0.0039062
        k(  242) = (   0.3750000  -0.2500000   0.1250000), wk =   0.0039062
        k(  243) = (   0.3750000  -0.2500000   0.2500000), wk =   0.0039062
        k(  244) = (   0.3750000  -0.2500000   0.3750000), wk =   0.0039062
        k(  245) = (   0.3750000  -0.2500000  -0.5000000), wk =   0.0039062
        k(  246) = (   0.3750000  -0.2500000  -0.3750000), wk =   0.0039062
        k(  247) = (   0.3750000  -0.2500000  -0.2500000), wk =   0.0039062
        k(  248) = (   0.3750000  -0.2500000  -0.1250000), wk =   0.0039062
        k(  249) = (   0.3750000  -0.1250000   0.0000000), wk =   0.0039062
        k(  250) = (   0.3750000  -0.1250000   0.1250000), wk =   0.0039062
        k(  251) = (   0.3750000  -0.1250000   0.2500000), wk =   0.0039062
        k(  252) = (   0.3750000  -0.1250000   0.3750000), wk =   0.0039062
        k(  253) = (   0.3750000  -0.1250000  -0.5000000), wk =   0.0039062
        k(  254) = (   0.3750000  -0.1250000  -0.3750000), wk =   0.0039062
        k(  255) = (   0.3750000  -0.1250000  -0.2500000), wk =   0.0039062
        k(  256) = (   0.3750000  -0.1250000  -0.1250000), wk =   0.0039062
        k(  257) = (  -0.5000000   0.0000000   0.0000000), wk =   0.0039062
        k(  258) = (  -0.5000000   0.0000000   0.1250000), wk =   0.0039062
        k(  259) = (  -0.5000000   0.0000000   0.2500000), wk =   0.0039062
        k(  260) = (  -0.5000000   0.0000000   0.3750000), wk =   0.0039062
        k(  261) = (  -0.5000000   0.0000000  -0.5000000), wk =   0.0039062
        k(  262) = (  -0.5000000   0.0000000  -0.3750000), wk =   0.0039062
        k(  263) = (  -0.5000000   0.0000000  -0.2500000), wk =   0.0039062
        k(  264) = (  -0.5000000   0.0000000  -0.1250000), wk =   0.0039062
        k(  265) = (  -0.5000000   0.1250000   0.0000000), wk =   0.0039062
        k(  266) = (  -0.5000000   0.1250000   0.1250000), wk =   0.0039062
        k(  267) = (  -0.5000000   0.1250000   0.2500000), wk =   0.0039062
        k(  268) = (  -0.5000000   0.1250000   0.3750000), wk =   0.0039062
        k(  269) = (  -0.5000000   0.1250000  -0.5000000), wk =   0.0039062
        k(  270) = (  -0.5000000   0.1250000  -0.3750000), wk =   0.0039062
        k(  271) = (  -0.5000000   0.1250000  -0.2500000), wk =   0.0039062
        k(  272) = (  -0.5000000   0.1250000  -0.1250000), wk =   0.0039062
        k(  273) = (  -0.5000000   0.2500000  -0.0000000), wk =   0.0039062
        k(  274) = (  -0.5000000   0.2500000   0.1250000), wk =   0.0039062
        k(  275) = (  -0.5000000   0.2500000   0.2500000), wk =   0.0039062
        k(  276) = (  -0.5000000   0.2500000   0.3750000), wk =   0.0039062
        k(  277) = (  -0.5000000   0.2500000  -0.5000000), wk =   0.0039062
        k(  278) = (  -0.5000000   0.2500000  -0.3750000), wk =   0.0039062
        k(  279) = (  -0.5000000   0.2500000  -0.2500000), wk =   0.0039062
        k(  280) = (  -0.5000000   0.2500000  -0.1250000), wk =   0.0039062
        k(  281) = (  -0.5000000   0.3750000  -0.0000000), wk =   0.0039062
        k(  282) = (  -0.5000000   0.3750000   0.1250000), wk =   0.0039062
        k(  283) = (  -0.5000000   0.3750000   0.2500000), wk =   0.0039062
        k(  284) = (  -0.5000000   0.3750000   0.3750000), wk =   0.0039062
        k(  285) = (  -0.5000000   0.3750000  -0.5000000), wk =   0.0039062
        k(  286) = (  -0.5000000   0.3750000  -0.3750000), wk =   0.0039062
        k(  287) = (  -0.5000000   0.3750000  -0.2500000), wk =   0.0039062
        k(  288) = (  -0.5000000   0.3750000  -0.1250000), wk =   0.0039062
        k(  289) = (  -0.5000000  -0.5000000   0.0000000), wk =   0.0039062
        k(  290) = (  -0.5000000  -0.5000000   0.1250000), wk =   0.0039062
        k(  291) = (  -0.5000000  -0.5000000   0.2500000), wk =   0.0039062
        k(  292) = (  -0.5000000  -0.5000000   0.3750000), wk =   0.0039062
        k(  293) = (  -0.5000000  -0.5000000  -0.5000000), wk =   0.0039062
        k(  294) = (  -0.5000000  -0.5000000  -0.3750000), wk =   0.0039062
        k(  295) = (  -0.5000000  -0.5000000  -0.2500000), wk =   0.0039062
        k(  296) = (  -0.5000000  -0.5000000  -0.1250000), wk =   0.0039062
        k(  297) = (  -0.5000000  -0.3750000   0.0000000), wk =   0.0039062
        k(  298) = (  -0.5000000  -0.3750000   0.1250000), wk =   0.0039062
        k(  299) = (  -0.5000000  -0.3750000   0.2500000), wk =   0.0039062
        k(  300) = (  -0.5000000  -0.3750000   0.3750000), wk =   0.0039062
        k(  301) = (  -0.5000000  -0.3750000  -0.5000000), wk =   0.0039062
        k(  302) = (  -0.5000000  -0.3750000  -0.3750000), wk =   0.0039062
        k(  303) = (  -0.5000000  -0.3750000  -0.2500000), wk =   0.0039062
        k(  304) = (  -0.5000000  -0.3750000  -0.1250000), wk =   0.0039062
        k(  305) = (  -0.5000000  -0.2500000   0.0000000), wk =   0.0039062
        k(  306) = (  -0.5000000  -0.2500000   0.1250000), wk =   0.0039062
        k(  307) = (  -0.5000000  -0.2500000   0.2500000), wk =   0.0039062
        k(  308) = (  -0.5000000  -0.2500000   0.3750000), wk =   0.0039062
        k(  309) = (  -0.5000000  -0.2500000  -0.5000000), wk =   0.0039062
        k(  310) = (  -0.5000000  -0.2500000  -0.3750000), wk =   0.0039062
        k(  311) = (  -0.5000000  -0.2500000  -0.2500000), wk =   0.0039062
        k(  312) = (  -0.5000000  -0.2500000  -0.1250000), wk =   0.0039062
        k(  313) = (  -0.5000000  -0.1250000  -0.0000000), wk =   0.0039062
        k(  314) = (  -0.5000000  -0.1250000   0.1250000), wk =   0.0039062
        k(  315) = (  -0.5000000  -0.1250000   0.2500000), wk =   0.0039062
        k(  316) = (  -0.5000000  -0.1250000   0.3750000), wk =   0.0039062
        k(  317) = (  -0.5000000  -0.1250000  -0.5000000), wk =   0.0039062
        k(  318) = (  -0.5000000  -0.1250000  -0.3750000), wk =   0.0039062
        k(  319) = (  -0.5000000  -0.1250000  -0.2500000), wk =   0.0039062
        k(  320) = (  -0.5000000  -0.1250000  -0.1250000), wk =   0.0039062
        k(  321) = (  -0.3750000   0.0000000   0.0000000), wk =   0.0039062
        k(  322) = (  -0.3750000   0.0000000   0.1250000), wk =   0.0039062
        k(  323) = (  -0.3750000   0.0000000   0.2500000), wk =   0.0039062
        k(  324) = (  -0.3750000   0.0000000   0.3750000), wk =   0.0039062
        k(  325) = (  -0.3750000   0.0000000  -0.5000000), wk =   0.0039062
        k(  326) = (  -0.3750000   0.0000000  -0.3750000), wk =   0.0039062
        k(  327) = (  -0.3750000   0.0000000  -0.2500000), wk =   0.0039062
        k(  328) = (  -0.3750000   0.0000000  -0.1250000), wk =   0.0039062
        k(  329) = (  -0.3750000   0.1250000   0.0000000), wk =   0.0039062
        k(  330) = (  -0.3750000   0.1250000   0.1250000), wk =   0.0039062
        k(  331) = (  -0.3750000   0.1250000   0.2500000), wk =   0.0039062
        k(  332) = (  -0.3750000   0.1250000   0.3750000), wk =   0.0039062
        k(  333) = (  -0.3750000   0.1250000  -0.5000000), wk =   0.0039062
        k(  334) = (  -0.3750000   0.1250000  -0.3750000), wk =   0.0039062
        k(  335) = (  -0.3750000   0.1250000  -0.2500000), wk =   0.0039062
        k(  336) = (  -0.3750000   0.1250000  -0.1250000), wk =   0.0039062
        k(  337) = (  -0.3750000   0.2500000   0.0000000), wk =   0.0039062
        k(  338) = (  -0.3750000   0.2500000   0.1250000), wk =   0.0039062
        k(  339) = (  -0.3750000   0.2500000   0.2500000), wk =   0.0039062
        k(  340) = (  -0.3750000   0.2500000   0.3750000), wk =   0.0039062
        k(  341) = (  -0.3750000   0.2500000  -0.5000000), wk =   0.0039062
        k(  342) = (  -0.3750000   0.2500000  -0.3750000), wk =   0.0039062
        k(  343) = (  -0.3750000   0.2500000  -0.2500000), wk =   0.0039062
        k(  344) = (  -0.3750000   0.2500000  -0.1250000), wk =   0.0039062
        k(  345) = (  -0.3750000   0.3750000  -0.0000000), wk =   0.0039062
        k(  346) = (  -0.3750000   0.3750000   0.1250000), wk =   0.0039062
        k(  347) = (  -0.3750000   0.3750000   0.2500000), wk =   0.0039062
        k(  348) = (  -0.3750000   0.3750000   0.3750000), wk =   0.0039062
        k(  349) = (  -0.3750000   0.3750000  -0.5000000), wk =   0.0039062
        k(  350) = (  -0.3750000   0.3750000  -0.3750000), wk =   0.0039062
        k(  351) = (  -0.3750000   0.3750000  -0.2500000), wk =   0.0039062
        k(  352) = (  -0.3750000   0.3750000  -0.1250000), wk =   0.0039062
        k(  353) = (  -0.3750000  -0.5000000   0.0000000), wk =   0.0039062
        k(  354) = (  -0.3750000  -0.5000000   0.1250000), wk =   0.0039062
        k(  355) = (  -0.3750000  -0.5000000   0.2500000), wk =   0.0039062
        k(  356) = (  -0.3750000  -0.5000000   0.3750000), wk =   0.0039062
        k(  357) = (  -0.3750000  -0.5000000  -0.5000000), wk =   0.0039062
        k(  358) = (  -0.3750000  -0.5000000  -0.3750000), wk =   0.0039062
        k(  359) = (  -0.3750000  -0.5000000  -0.2500000), wk =   0.0039062
        k(  360) = (  -0.3750000  -0.5000000  -0.1250000), wk =   0.0039062
        k(  361) = (  -0.3750000  -0.3750000  -0.0000000), wk =   0.0039062
        k(  362) = (  -0.3750000  -0.3750000   0.1250000), wk =   0.0039062
        k(  363) = (  -0.3750000  -0.3750000   0.2500000), wk =   0.0039062
        k(  364) = (  -0.3750000  -0.3750000   0.3750000), wk =   0.0039062
        k(  365) = (  -0.3750000  -0.3750000  -0.5000000), wk =   0.0039062
        k(  366) = (  -0.3750000  -0.3750000  -0.3750000), wk =   0.0039062
        k(  367) = (  -0.3750000  -0.3750000  -0.2500000), wk =   0.0039062
        k(  368) = (  -0.3750000  -0.3750000  -0.1250000), wk =   0.0039062
        k(  369) = (  -0.3750000  -0.2500000   0.0000000), wk =   0.0039062
        k(  370) = (  -0.3750000  -0.2500000   0.1250000), wk =   0.0039062
        k(  371) = (  -0.3750000  -0.2500000   0.2500000), wk =   0.0039062
        k(  372) = (  -0.3750000  -0.2500000   0.3750000), wk =   0.0039062
        k(  373) = (  -0.3750000  -0.2500000  -0.5000000), wk =   0.0039062
        k(  374) = (  -0.3750000  -0.2500000  -0.3750000), wk =   0.0039062
        k(  375) = (  -0.3750000  -0.2500000  -0.2500000), wk =   0.0039062
        k(  376) = (  -0.3750000  -0.2500000  -0.1250000), wk =   0.0039062
        k(  377) = (  -0.3750000  -0.1250000   0.0000000), wk =   0.0039062
        k(  378) = (  -0.3750000  -0.1250000   0.1250000), wk =   0.0039062
        k(  379) = (  -0.3750000  -0.1250000   0.2500000), wk =   0.0039062
        k(  380) = (  -0.3750000  -0.1250000   0.3750000), wk =   0.0039062
        k(  381) = (  -0.3750000  -0.1250000  -0.5000000), wk =   0.0039062
        k(  382) = (  -0.3750000  -0.1250000  -0.3750000), wk =   0.0039062
        k(  383) = (  -0.3750000  -0.1250000  -0.2500000), wk =   0.0039062
        k(  384) = (  -0.3750000  -0.1250000  -0.1250000), wk =   0.0039062
        k(  385) = (  -0.2500000   0.0000000   0.0000000), wk =   0.0039062
        k(  386) = (  -0.2500000   0.0000000   0.1250000), wk =   0.0039062
        k(  387) = (  -0.2500000   0.0000000   0.2500000), wk =   0.0039062
        k(  388) = (  -0.2500000   0.0000000   0.3750000), wk =   0.0039062
        k(  389) = (  -0.2500000   0.0000000  -0.5000000), wk =   0.0039062
        k(  390) = (  -0.2500000   0.0000000  -0.3750000), wk =   0.0039062
        k(  391) = (  -0.2500000   0.0000000  -0.2500000), wk =   0.0039062
        k(  392) = (  -0.2500000   0.0000000  -0.1250000), wk =   0.0039062
        k(  393) = (  -0.2500000   0.1250000  -0.0000000), wk =   0.0039062
        k(  394) = (  -0.2500000   0.1250000   0.1250000), wk =   0.0039062
        k(  395) = (  -0.2500000   0.1250000   0.2500000), wk =   0.0039062
        k(  396) = (  -0.2500000   0.1250000   0.3750000), wk =   0.0039062
        k(  397) = (  -0.2500000   0.1250000  -0.5000000), wk =   0.0039062
        k(  398) = (  -0.2500000   0.1250000  -0.3750000), wk =   0.0039062
        k(  399) = (  -0.2500000   0.1250000  -0.2500000), wk =   0.0039062
        k(  400) = (  -0.2500000   0.1250000  -0.1250000), wk =   0.0039062
        k(  401) = (  -0.2500000   0.2500000  -0.0000000), wk =   0.0039062
        k(  402) = (  -0.2500000   0.2500000   0.1250000), wk =   0.0039062
        k(  403) = (  -0.2500000   0.2500000   0.2500000), wk =   0.0039062
        k(  404) = (  -0.2500000   0.2500000   0.3750000), wk =   0.0039062
        k(  405) = (  -0.2500000   0.2500000  -0.5000000), wk =   0.0039062
        k(  406) = (  -0.2500000   0.2500000  -0.3750000), wk =   0.0039062
        k(  407) = (  -0.2500000   0.2500000  -0.2500000), wk =   0.0039062
        k(  408) = (  -0.2500000   0.2500000  -0.1250000), wk =   0.0039062
        k(  409) = (  -0.2500000   0.3750000  -0.0000000), wk =   0.0039062
        k(  410) = (  -0.2500000   0.3750000   0.1250000), wk =   0.0039062
        k(  411) = (  -0.2500000   0.3750000   0.2500000), wk =   0.0039062
        k(  412) = (  -0.2500000   0.3750000   0.3750000), wk =   0.0039062
        k(  413) = (  -0.2500000   0.3750000  -0.5000000), wk =   0.0039062
        k(  414) = (  -0.2500000   0.3750000  -0.3750000), wk =   0.0039062
        k(  415) = (  -0.2500000   0.3750000  -0.2500000), wk =   0.0039062
        k(  416) = (  -0.2500000   0.3750000  -0.1250000), wk =   0.0039062
        k(  417) = (  -0.2500000  -0.5000000   0.0000000), wk =   0.0039062
        k(  418) = (  -0.2500000  -0.5000000   0.1250000), wk =   0.0039062
        k(  419) = (  -0.2500000  -0.5000000   0.2500000), wk =   0.0039062
        k(  420) = (  -0.2500000  -0.5000000   0.3750000), wk =   0.0039062
        k(  421) = (  -0.2500000  -0.5000000  -0.5000000), wk =   0.0039062
        k(  422) = (  -0.2500000  -0.5000000  -0.3750000), wk =   0.0039062
        k(  423) = (  -0.2500000  -0.5000000  -0.2500000), wk =   0.0039062
        k(  424) = (  -0.2500000  -0.5000000  -0.1250000), wk =   0.0039062
        k(  425) = (  -0.2500000  -0.3750000  -0.0000000), wk =   0.0039062
        k(  426) = (  -0.2500000  -0.3750000   0.1250000), wk =   0.0039062
        k(  427) = (  -0.2500000  -0.3750000   0.2500000), wk =   0.0039062
        k(  428) = (  -0.2500000  -0.3750000   0.3750000), wk =   0.0039062
        k(  429) = (  -0.2500000  -0.3750000  -0.5000000), wk =   0.0039062
        k(  430) = (  -0.2500000  -0.3750000  -0.3750000), wk =   0.0039062
        k(  431) = (  -0.2500000  -0.3750000  -0.2500000), wk =   0.0039062
        k(  432) = (  -0.2500000  -0.3750000  -0.1250000), wk =   0.0039062
        k(  433) = (  -0.2500000  -0.2500000   0.0000000), wk =   0.0039062
        k(  434) = (  -0.2500000  -0.2500000   0.1250000), wk =   0.0039062
        k(  435) = (  -0.2500000  -0.2500000   0.2500000), wk =   0.0039062
        k(  436) = (  -0.2500000  -0.2500000   0.3750000), wk =   0.0039062
        k(  437) = (  -0.2500000  -0.2500000  -0.5000000), wk =   0.0039062
        k(  438) = (  -0.2500000  -0.2500000  -0.3750000), wk =   0.0039062
        k(  439) = (  -0.2500000  -0.2500000  -0.2500000), wk =   0.0039062
        k(  440) = (  -0.2500000  -0.2500000  -0.1250000), wk =   0.0039062
        k(  441) = (  -0.2500000  -0.1250000   0.0000000), wk =   0.0039062
        k(  442) = (  -0.2500000  -0.1250000   0.1250000), wk =   0.0039062
        k(  443) = (  -0.2500000  -0.1250000   0.2500000), wk =   0.0039062
        k(  444) = (  -0.2500000  -0.1250000   0.3750000), wk =   0.0039062
        k(  445) = (  -0.2500000  -0.1250000  -0.5000000), wk =   0.0039062
        k(  446) = (  -0.2500000  -0.1250000  -0.3750000), wk =   0.0039062
        k(  447) = (  -0.2500000  -0.1250000  -0.2500000), wk =   0.0039062
        k(  448) = (  -0.2500000  -0.1250000  -0.1250000), wk =   0.0039062
        k(  449) = (  -0.1250000   0.0000000   0.0000000), wk =   0.0039062
        k(  450) = (  -0.1250000   0.0000000   0.1250000), wk =   0.0039062
        k(  451) = (  -0.1250000   0.0000000   0.2500000), wk =   0.0039062
        k(  452) = (  -0.1250000   0.0000000   0.3750000), wk =   0.0039062
        k(  453) = (  -0.1250000   0.0000000  -0.5000000), wk =   0.0039062
        k(  454) = (  -0.1250000   0.0000000  -0.3750000), wk =   0.0039062
        k(  455) = (  -0.1250000   0.0000000  -0.2500000), wk =   0.0039062
        k(  456) = (  -0.1250000   0.0000000  -0.1250000), wk =   0.0039062
        k(  457) = (  -0.1250000   0.1250000  -0.0000000), wk =   0.0039062
        k(  458) = (  -0.1250000   0.1250000   0.1250000), wk =   0.0039062
        k(  459) = (  -0.1250000   0.1250000   0.2500000), wk =   0.0039062
        k(  460) = (  -0.1250000   0.1250000   0.3750000), wk =   0.0039062
        k(  461) = (  -0.1250000   0.1250000  -0.5000000), wk =   0.0039062
        k(  462) = (  -0.1250000   0.1250000  -0.3750000), wk =   0.0039062
        k(  463) = (  -0.1250000   0.1250000  -0.2500000), wk =   0.0039062
        k(  464) = (  -0.1250000   0.1250000  -0.1250000), wk =   0.0039062
        k(  465) = (  -0.1250000   0.2500000  -0.0000000), wk =   0.0039062
        k(  466) = (  -0.1250000   0.2500000   0.1250000), wk =   0.0039062
        k(  467) = (  -0.1250000   0.2500000   0.2500000), wk =   0.0039062
        k(  468) = (  -0.1250000   0.2500000   0.3750000), wk =   0.0039062
        k(  469) = (  -0.1250000   0.2500000  -0.5000000), wk =   0.0039062
        k(  470) = (  -0.1250000   0.2500000  -0.3750000), wk =   0.0039062
        k(  471) = (  -0.1250000   0.2500000  -0.2500000), wk =   0.0039062
        k(  472) = (  -0.1250000   0.2500000  -0.1250000), wk =   0.0039062
        k(  473) = (  -0.1250000   0.3750000  -0.0000000), wk =   0.0039062
        k(  474) = (  -0.1250000   0.3750000   0.1250000), wk =   0.0039062
        k(  475) = (  -0.1250000   0.3750000   0.2500000), wk =   0.0039062
        k(  476) = (  -0.1250000   0.3750000   0.3750000), wk =   0.0039062
        k(  477) = (  -0.1250000   0.3750000  -0.5000000), wk =   0.0039062
        k(  478) = (  -0.1250000   0.3750000  -0.3750000), wk =   0.0039062
        k(  479) = (  -0.1250000   0.3750000  -0.2500000), wk =   0.0039062
        k(  480) = (  -0.1250000   0.3750000  -0.1250000), wk =   0.0039062
        k(  481) = (  -0.1250000  -0.5000000   0.0000000), wk =   0.0039062
        k(  482) = (  -0.1250000  -0.5000000   0.1250000), wk =   0.0039062
        k(  483) = (  -0.1250000  -0.5000000   0.2500000), wk =   0.0039062
        k(  484) = (  -0.1250000  -0.5000000   0.3750000), wk =   0.0039062
        k(  485) = (  -0.1250000  -0.5000000  -0.5000000), wk =   0.0039062
        k(  486) = (  -0.1250000  -0.5000000  -0.3750000), wk =   0.0039062
        k(  487) = (  -0.1250000  -0.5000000  -0.2500000), wk =   0.0039062
[...]

    -2.4765  -0.6664  10.1263  14.3311  15.2081  16.4239  17.3098  18.8688

     occupation numbers 
     1.0000   1.0000   0.9999   0.0000   0.0000   0.0000   0.0000   0.0000

          k =-0.1279 0.0640-0.1558 (   850 PWs)   bands (ev):

    -3.0616   0.5896   7.8471  13.9962  16.7694  17.3928  17.6848  19.7201

     occupation numbers 
     1.0000   1.0000   1.0000   0.0000   0.0000   0.0000   0.0000   0.0000

          k =-0.1264 0.0643-0.0776 (   847 PWs)   bands (ev):

    -3.4152   2.0627   5.7493  13.7260  16.5157  18.4967  18.9855  20.3202

     occupation numbers 
     1.0000   1.0000   1.0000   0.0000   0.0000   0.0000   0.0000   0.0000

          k =-0.1249 0.2063-0.0002 (   849 PWs)   bands (ev):

    -2.8102   4.3315   4.6659  11.7095  12.3309  17.8716  18.1772  18.2809

     occupation numbers 
     1.0000   1.0000   1.0000   0.0000   0.0000   0.0000   0.0000   0.0000

          k =-0.1234 0.2066 0.0780 (   846 PWs)   bands (ev):

    -2.6996   2.8411   6.3494  11.8375  12.4425  16.5883  17.3185  19.4030

     occupation numbers 
     1.0000   1.0000   1.0000   0.0000   0.0000   0.0000   0.0000   0.0000

          k =-0.1219 0.2069 0.1561 (   849 PWs)   bands (ev):

    -2.3573   1.3637   8.4211  12.1772  12.7509  15.3259  16.1363  18.4112

     occupation numbers 
     1.0000   1.0000   1.0000   0.0000   0.0000   0.0000   0.0000   0.0000

          k =-0.1204 0.2071 0.2343 (   857 PWs)   bands (ev):

    -1.7841   0.1020  10.6491  12.7276  13.2052  14.2374  15.0726  16.0384

     occupation numbers 
     1.0000   1.0000   0.0000   0.0000   0.0000   0.0000   0.0000   0.0000

          k =-0.1307 0.2053-0.3129 (   862 PWs)   bands (ev):

    -0.9820  -0.9375  12.7765  12.9079  13.3804  13.5350  14.3869  14.4880

     occupation numbers 
     1.0000   1.0000   0.0000   0.0000   0.0000   0.0000   0.0000   0.0000

          k =-0.1293 0.2055-0.2347 (   859 PWs)   bands (ev):

    -1.7508   0.0467  10.7678  12.5929  13.1532  14.4213  15.1726  15.9211

     occupation numbers 
     1.0000   1.0000   0.0000   0.0000   0.0000   0.0000   0.0000   0.0000

          k =-0.1278 0.2058-0.1566 (   847 PWs)   bands (ev):

    -2.3350   1.2979   8.5282  12.0896  12.7150  15.5521  16.2472  18.2675

     occupation numbers 
     1.0000   1.0000   1.0000   0.0000   0.0000   0.0000   0.0000   0.0000

          k =-0.1263 0.2061-0.0784 (   850 PWs)   bands (ev):

    -2.6885   2.7651   6.4460  11.7940  12.4243  16.8511  17.4124  19.1592

     occupation numbers 
     1.0000   1.0000   1.0000   0.0000   0.0000   0.0000   0.0000   0.0000

          k =-0.1247 0.3481-0.0010 (   847 PWs)   bands (ev):

    -1.3317   5.7759   6.0617   7.8656  10.7446  14.4760  14.9068  16.9875

     occupation numbers 
     1.0000   1.0000   1.0000   1.0000   0.0000   0.0000   0.0000   0.0000

          k =-0.1233 0.3484 0.0772 (   842 PWs)   bands (ev):

    -1.2227   4.2867   7.7294   7.9775  10.8773  13.1805  15.4843  16.8057

     occupation numbers 
     1.0000   1.0000   1.0000   1.0000   0.0000   0.0000   0.0000   0.0000

          k =-0.1218 0.3487 0.1553 (   848 PWs)   bands (ev):

    -0.8835   2.8197   8.3037   9.7165  11.2141  11.8908  14.4418  18.0901

     occupation numbers 
     1.0000   1.0000   1.0000   1.0000   0.0000   0.0000   0.0000   0.0000

          k =-0.1203 0.3489 0.2335 (   845 PWs)   bands (ev):

    -0.3147   1.5661   8.8463  10.4607  11.7827  12.0541  13.4953  17.1017

     occupation numbers 
     1.0000   1.0000   1.0000   0.0146   0.0000   0.0000   0.0000   0.0000

          k =-0.1306 0.3471-0.3137 (   845 PWs)   bands (ev):

     0.4816   0.5328   9.5830   9.5943  12.2636  12.4782  14.6668  14.8066

     occupation numbers 
     1.0000   1.0000   1.0000   1.0000   0.0000   0.0000   0.0000   0.0000

          k =-0.1292 0.3474-0.2355 (   846 PWs)   bands (ev):

    -0.2763   1.5025   8.8390  10.4868  11.6197  12.1829  13.7453  16.9625

     occupation numbers 
     1.0000   1.0000   1.0000   0.0053   0.0000   0.0000   0.0000   0.0000

          k =-0.1277 0.3476-0.1573 (   851 PWs)   bands (ev):

    -0.8578   2.7438   8.2993   9.8390  11.1058  11.8984  14.7491  18.0014

     occupation numbers 
     1.0000   1.0000   1.0000   1.0000   0.0000   0.0000   0.0000   0.0000

          k =-0.1262 0.3479-0.0792 (   845 PWs)   bands (ev):

    -1.2099   4.1989   7.8423   7.9739  10.8219  13.1903  15.7438  16.8309

     occupation numbers 
     1.0000   1.0000   1.0000   1.0000   0.0000   0.0000   0.0000   0.0000

          k =-0.1255-0.6445 0.0045 (   853 PWs)   bands (ev):

     0.8597   4.2284   7.9134   8.0706  10.2236  11.0828  11.6349  16.5523

     occupation numbers 
     1.0000   1.0000   1.0000   1.0000   0.9934   0.0000   0.0000   0.0000

          k =-0.1240-0.6443 0.0826 (   855 PWs)   bands (ev):

     0.9669   4.3403   6.4171   9.2625  10.1877  10.4273  13.0499  15.5001

     occupation numbers 
     1.0000   1.0000   1.0000   1.0000   0.9984   0.0515   0.0000   0.0000

          k =-0.1225-0.6440 0.1608 (   852 PWs)   bands (ev):

     1.3024   4.6758   4.9709   8.1763  10.7465  11.8757  13.7980  15.4462

     occupation numbers 
     1.0000   1.0000   1.0000   1.0000   0.0000   0.0000   0.0000   0.0000

          k =-0.1211-0.6437 0.2390 (   845 PWs)   bands (ev):

     1.8648   3.7318   5.2333   6.9977  11.2977  12.6485  14.2442  17.0941

     occupation numbers 
     1.0000   1.0000   1.0000   1.0000   0.0000   0.0000   0.0000   0.0000

          k =-0.1314-0.6456-0.3082 (   841 PWs)   bands (ev):

     2.6521   2.7091   6.0080   6.0114  11.8318  12.0444  16.3542  16.4898

     occupation numbers 
     1.0000   1.0000   1.0000   1.0000   0.0000   0.0000   0.0000   0.0000

          k =-0.1299-0.6453-0.2301 (   840 PWs)   bands (ev):

     1.9076   3.6610   5.2339   6.9980  11.1352  12.8999  14.3881  17.0625

     occupation numbers 
     1.0000   1.0000   1.0000   1.0000   0.0000   0.0000   0.0000   0.0000

          k =-0.1284-0.6451-0.1519 (   849 PWs)   bands (ev):

     1.3310   4.6750   4.8877   8.1796  10.6365  12.0083  14.0414  15.5004

     occupation numbers 
     1.0000   1.0000   1.0000   1.0000   0.0000   0.0000   0.0000   0.0000

          k =-0.1270-0.6448-0.0737 (   854 PWs)   bands (ev):

     0.9812   4.3405   6.3194   9.3196  10.2349  10.3847  13.0753  15.8094

     occupation numbers 
     1.0000   1.0000   1.0000   1.0000   0.9898   0.2222   0.0000   0.0000

          k =-0.1254-0.5027 0.0037 (   854 PWs)   bands (ev):

     1.0961   3.9231   8.1571   8.2521  10.4689  10.7827  11.3730  16.7536

     occupation numbers 
     1.0000   1.0000   1.0000   1.0000   0.0106   0.0000   0.0000   0.0000

          k =-0.1239-0.5025 0.0819 (   857 PWs)   bands (ev):

     1.2092   4.0275   6.6012   9.1865  10.3075  10.6372  12.7448  15.6840

     occupation numbers 
     1.0000   1.0000   1.0000   1.0000   0.8522   0.0000   0.0000   0.0000

          k =-0.1224-0.5022 0.1600 (   849 PWs)   bands (ev):

     1.5502   4.3558   5.1657   7.9363  10.9647  12.1299  13.9225  15.2156

     occupation numbers 
     1.0000   1.0000   1.0000   1.0000   0.0000   0.0000   0.0000   0.0000

          k =-0.1210-0.5019 0.2382 (   846 PWs)   bands (ev):

     2.1181   3.9347   4.9070   6.7385  11.5174  12.8641  14.5123  16.8246

     occupation numbers 
     1.0000   1.0000   1.0000   1.0000   0.0000   0.0000   0.0000   0.0000

          k =-0.1313-0.5038-0.3090 (   848 PWs)   bands (ev):

     2.9103   2.9196   5.6769   5.7395  12.0565  12.2603  16.5763  16.5926

     occupation numbers 
     1.0000   1.0000   1.0000   1.0000   0.0000   0.0000   0.0000   0.0000

          k =-0.1298-0.5035-0.2308 (   845 PWs)   bands (ev):

     2.1250   3.9238   4.9532   6.6616  11.3608  13.0954  14.5618  16.9324

     occupation numbers 
     1.0000   1.0000   1.0000   1.0000   0.0000   0.0000   0.0000   0.0000

          k =-0.1283-0.5032-0.1527 (   852 PWs)   bands (ev):

     1.5550   4.3869   5.1529   7.8441  10.8568  12.1704  14.1641  15.3863

     occupation numbers 
     1.0000   1.0000   1.0000   1.0000   0.0000   0.0000   0.0000   0.0000

          k =-0.1268-0.5030-0.0745 (   852 PWs)   bands (ev):

     1.2115   4.0430   6.5880   9.0918  10.2959  10.6131  12.8748  15.9895

     occupation numbers 
     1.0000   1.0000   1.0000   1.0000   0.9008   0.0000   0.0000   0.0000

          k =-0.1253-0.3609 0.0029 (   858 PWs)   bands (ev):

    -1.1551   5.9501   6.2240   7.4809  11.4296  14.1291  14.5994  17.5688

     occupation numbers 
     1.0000   1.0000   1.0000   1.0000   0.0000   0.0000   0.0000   0.0000

          k =-0.1238-0.3606 0.0811 (   853 PWs)   bands (ev):

    -1.0419   4.4266   7.5816   7.9353  11.5591  12.8744  15.7367  16.7982

     occupation numbers 
     1.0000   1.0000   1.0000   1.0000   0.0000   0.0000   0.0000   0.0000

          k =-0.1223-0.3604 0.1592 (   850 PWs)   bands (ev):

    -0.6982   2.9659   7.9019   9.9008  11.5696  11.9065  15.1018  17.7718

     occupation numbers 
     1.0000   1.0000   1.0000   1.0000   0.0000   0.0000   0.0000   0.0000

          k =-0.1209-0.3601 0.2374 (   853 PWs)   bands (ev):

    -0.1255   1.7180   8.4373  10.1756  12.2380  12.4497  14.1342  17.1345

     occupation numbers 
     1.0000   1.0000   1.0000   0.9990   0.0000   0.0000   0.0000   0.0000

          k =-0.1312-0.3620-0.3098 (   855 PWs)   bands (ev):

     0.6746   0.6901   9.1803   9.2480  12.9029  13.0880  14.8870  14.9497

     occupation numbers 
     1.0000   1.0000   1.0000   1.0000   0.0000   0.0000   0.0000   0.0000

          k =-0.1297-0.3617-0.2316 (   847 PWs)   bands (ev):

    -0.1138   1.6990   8.4870  10.0939  12.2029  12.4001  14.3562  17.0999

     occupation numbers 
     1.0000   1.0000   1.0000   1.0000   0.0000   0.0000   0.0000   0.0000

          k =-0.1282-0.3614-0.1534 (   853 PWs)   bands (ev):

    -0.6904   2.9433   7.9351   9.9185  11.4784  11.8295  15.3767  17.8445

     occupation numbers 
     1.0000   1.0000   1.0000   1.0000   0.0000   0.0000   0.0000   0.0000

          k =-0.1267-0.3612-0.0753 (   854 PWs)   bands (ev):

    -1.0380   4.4008   7.5987   7.9647  11.5077  12.7761  15.9301  17.0020

     occupation numbers 
     1.0000   1.0000   1.0000   1.0000   0.0000   0.0000   0.0000   0.0000

          k =-0.1252-0.2191 0.0021 (   854 PWs)   bands (ev):

    -2.7033   4.4374   4.7654  11.5849  13.0901  17.8083  18.1719  18.7732

     occupation numbers 
     1.0000   1.0000   1.0000   0.0000   0.0000   0.0000   0.0000   0.0000

          k =-0.1237-0.2188 0.0803 (   853 PWs)   bands (ev):

    -2.5901   2.9263   6.4749  11.6840  13.2127  16.6640  17.8848  19.0662

     occupation numbers 
     1.0000   1.0000   1.0000   0.0000   0.0000   0.0000   0.0000   0.0000

          k =-0.1222-0.2186 0.1585 (   854 PWs)   bands (ev):

    -2.2452   1.4524   8.5482  11.9923  13.5294  15.3880  16.7562  18.2472

     occupation numbers 
     1.0000   1.0000   1.0000   0.0000   0.0000   0.0000   0.0000   0.0000

          k =-0.1208-0.2183 0.2366 (   855 PWs)   bands (ev):

    -1.6696   0.1939  10.7824  12.4986  13.9679  14.2839  15.7011  16.0805

     occupation numbers 
     1.0000   1.0000   0.0000   0.0000   0.0000   0.0000   0.0000   0.0000

          k =-0.1310-0.2201-0.3106 (   857 PWs)   bands (ev):

    -0.8651  -0.8423  12.9079  12.9177  13.4757  13.5185  14.9537  15.0872

     occupation numbers 
     1.0000   1.0000   0.0000   0.0000   0.0000   0.0000   0.0000   0.0000

          k =-0.1296-0.2199-0.2324 (   861 PWs)   bands (ev):

    -1.6524   0.1656  10.8369  12.5368  13.8343  14.2540  15.8884  16.0074

     occupation numbers 
     1.0000   1.0000   0.0000   0.0000   0.0000   0.0000   0.0000   0.0000

          k =-0.1281-0.2196-0.1542 (   856 PWs)   bands (ev):

    -2.2337   1.4188   8.6007  12.0169  13.4439  15.3387  16.9798  18.1788

     occupation numbers 
     1.0000   1.0000   1.0000   0.0000   0.0000   0.0000   0.0000   0.0000

          k =-0.1266-0.2194-0.0761 (   853 PWs)   bands (ev):

    -2.5843   2.8876   6.5232  11.6962  13.1700  16.6048  18.1231  19.0185

     occupation numbers 
     1.0000   1.0000   1.0000   0.0000   0.0000   0.0000   0.0000   0.0000

     the Fermi energy is    10.3525 ev

!    total energy              =     -15.77739926 Ry
     estimated scf accuracy    <       0.00684061 Ry
     smearing contrib. (-TS)   =      -0.00014452 Ry
     internal energy E=F+TS    =     -15.77725474 Ry

     The total energy is F=E-TS. E is the sum of the following terms:
     one-electron contribution =       8.94355247 Ry
     hartree contribution      =       0.07343212 Ry
     xc contribution           =      -4.86535236 Ry
     ewald contribution        =     -19.92888696 Ry

     convergence has been achieved in   1 iterations

     Forces acting on atoms (cartesian axes, Ry/au):

     atom    1 type  1   force =     0.00038928    0.00053937    0.00012168
     atom    2 type  1   force =    -0.00038928   -0.00053937   -0.00012168
     The non-local contrib.  to forces
     atom    1 type  1   force =    -0.00230418   -0.00299290    0.00005691
     atom    2 type  1   force =     0.00231052    0.00298708   -0.00005988
     The ionic contribution  to forces
     atom    1 type  1   force =     0.02346821    0.00909776    0.00075310
     atom    2 type  1   force =    -0.02346821   -0.00909776   -0.00075310
     The local contribution  to forces
     atom    1 type  1   force =    -0.02192651   -0.00582261   -0.00070380
     atom    2 type  1   force =     0.02192537    0.00582612    0.00070872
     The core correction contribution to forces
     atom    1 type  1   force =     0.00000000    0.00000000    0.00000000
     atom    2 type  1   force =     0.00000000    0.00000000    0.00000000
     The Hubbard contrib.    to forces
     atom    1 type  1   force =     0.00000000    0.00000000    0.00000000
     atom    2 type  1   force =     0.00000000    0.00000000    0.00000000
     The SCF correction term to forces
     atom    1 type  1   force =     0.00115444    0.00025597    0.00001631
     atom    2 type  1   force =    -0.00115427   -0.00025595   -0.00001658

     Total force =     0.000956     Total SCF correction =     0.001672
     SCF correction compared to forces is large: reduce conv_thr to get better values


     Computing stress (Cartesian axis) and pressure

          total   stress  (Ry/bohr**3)                   (kbar)     P=      -64.25
  -0.00072444  -0.00035585   0.00006820         -106.57      -52.35       10.03
  -0.00035585  -0.00049472   0.00001394          -52.35      -72.78        2.05
   0.00006820   0.00001394  -0.00009108           10.03        2.05      -13.40

     kinetic stress (kbar)   3017.52    -57.40      9.80
                              -57.40   3052.72      2.24
                                9.80      2.24   3104.77

     local   stress (kbar)   -750.73   -121.98    -22.86
                             -121.98   -689.80      5.69
                              -22.86      5.69   -953.04

     nonloc. stress (kbar)   3643.61     18.44      4.60
                               18.44   3633.69     -1.15
                                4.60     -1.15   3680.35

     hartree stress (kbar)     14.42      6.64      0.69
                                6.64     11.78     -0.26
                                0.69     -0.26     28.01

     exc-cor stress (kbar)  -1091.45      0.00      0.00
                                0.00  -1091.45      0.00
                                0.00      0.00  -1091.45

     corecor stress (kbar)      0.00      0.00      0.00
                                0.00      0.00      0.00
                                0.00      0.00      0.00

     ewald   stress (kbar)  -4939.94    101.95     17.79
                              101.95  -4989.72     -4.48
                               17.79     -4.48  -4782.04

     hubbard stress (kbar)      0.00      0.00      0.00
                                0.00      0.00      0.00
                                0.00      0.00      0.00

     DFT-D   stress (kbar)      0.00      0.00      0.00
                                0.00      0.00      0.00
                                0.00      0.00      0.00

     XDM     stress (kbar)      0.00      0.00      0.00
                                0.00      0.00      0.00
                                0.00      0.00      0.00

     dft-nl  stress (kbar)      0.00      0.00      0.00
                                0.00      0.00      0.00
                                0.00      0.00      0.00

     TS-vdW  stress (kbar)      0.00      0.00      0.00
                                0.00      0.00      0.00
                                0.00      0.00      0.00

     MDB     stress (kbar)      0.00      0.00      0.00
                                0.00      0.00      0.00
                                0.00      0.00      0.00

     3D-RISM stress (kbar)      0.00      0.00      0.00
                                0.00      0.00      0.00
                                0.00      0.00      0.00


     Writing all to output data dir ../tmp/Si/Si.save/ :
     XML data file, charge density, pseudopotentials, collected wavefunctions

     init_run     :      2.23s CPU      2.31s WALL (       1 calls)
     electrons    :     13.76s CPU     14.03s WALL (       1 calls)
     forces       :      0.16s CPU      0.16s WALL (       1 calls)
     stress       :      1.80s CPU      1.81s WALL (       1 calls)

     Called by init_run:
     wfcinit      :      1.92s CPU      1.98s WALL (       1 calls)
     wfcinit:atom :      0.06s CPU      0.06s WALL (     512 calls)
     wfcinit:wfcr :      1.59s CPU      1.64s WALL (     512 calls)
     potinit      :      0.01s CPU      0.01s WALL (       1 calls)
     hinit0       :      0.25s CPU      0.26s WALL (       1 calls)

     Called by electrons:
     c_bands      :     11.99s CPU     12.22s WALL (       2 calls)
     sum_band     :      1.76s CPU      1.80s WALL (       2 calls)
     v_of_rho     :      0.00s CPU      0.00s WALL (       2 calls)
     v_h          :      0.00s CPU      0.00s WALL (       2 calls)
     v_xc         :      0.00s CPU      0.00s WALL (       2 calls)
     mix_rho      :      0.00s CPU      0.00s WALL (       2 calls)

     Called by c_bands:
     init_us_2    :      0.47s CPU      0.49s WALL (    3584 calls)
     cegterg      :     11.75s CPU     11.97s WALL (    1024 calls)

     Called by sum_band:
     sum_band:wei :      0.00s CPU      0.00s WALL (       2 calls)
     sum_band:loo :      1.75s CPU      1.80s WALL (       2 calls)
     sum_band:buf :      0.02s CPU      0.02s WALL (    1024 calls)
     sum_band:ini :      0.15s CPU      0.16s WALL (    1024 calls)

     Called by *egterg:
     cdiaghg      :      0.42s CPU      0.43s WALL (    4628 calls)
     cegterg:over :      0.24s CPU      0.25s WALL (    4116 calls)
     cegterg:upda :      0.20s CPU      0.20s WALL (    4116 calls)
     cegterg:last :      0.22s CPU      0.22s WALL (    3143 calls)
     h_psi        :     11.99s CPU     12.24s WALL (    5652 calls)
     g_psi        :      0.08s CPU      0.08s WALL (    4116 calls)

     Called by h_psi:
     h_psi:calbec :      0.14s CPU      0.14s WALL (    5652 calls)
     vloc_psi     :     11.62s CPU     11.85s WALL (    5652 calls)
     add_vuspsi   :      0.14s CPU      0.14s WALL (    5652 calls)

     General routines
     calbec       :      0.20s CPU      0.20s WALL (    8212 calls)
     fft          :      0.22s CPU      0.23s WALL (      11 calls)
     ffts         :      0.00s CPU      0.00s WALL (       2 calls)
     fftw         :     11.49s CPU     11.72s WALL (   73808 calls)


     PWSCF        :     18.03s CPU     18.49s WALL


   This run was terminated on:  18:59:46   6May2024            

=------------------------------------------------------------------------------=
   JOB DONE.
=------------------------------------------------------------------------------=
