
     Program PWSCF v.7.3.1 starts on  6May2024 at 18:59:57 

     This program is part of the open-source Quantum ESPRESSO suite
     for quantum simulation of materials; please cite
         "P. Giannozzi et al., J. Phys.:Condens. Matter 21 395502 (2009);
         "P. Giannozzi et al., J. Phys.:Condens. Matter 29 465901 (2017);
         "P. Giannozzi et al., J. Chem. Phys. 152 154105 (2020);
          URL http://www.quantum-espresso.org", 
     in publications or presentations arising from this work. More details at
     http://www.quantum-espresso.org/quote

     Serial version
     1904 MiB available memory on the printing compute node when the environment starts

     Reading input from Si4.pw.in

     Current dimensions of program PWSCF are:
     Max number of different atomic species (ntypx) = 10
     Max number of k-points (npk) =  40000
     Max angular momentum in pseudopotentials (lmaxx) =  4


     G-vector sticks info
     --------------------
     sticks:   dense  smooth     PW     G-vecs:    dense   smooth      PW
     Sum         273     273     99                 6399     6399    1405

     Using Slab Decomposition



     bravais-lattice index     =            0
     lattice parameter (alat)  =       5.0387  a.u.
     unit-cell volume          =     187.9307 (a.u.)^3
     number of atoms/cell      =            2
     number of atomic types    =            1
     number of electrons       =         8.00
     number of Kohn-Sham states=            8
     kinetic-energy cutoff     =      40.0000  Ry
     charge density cutoff     =     160.0000  Ry
     scf convergence threshold =      2.0E-02
     mixing beta               =       0.1000
     number of iterations used =            8  plain     mixing
     Exchange-correlation=  SLA  PZ   NOGX NOGC
                           (   1   1   0   0   0   0   0)

     celldm(1)=   5.038679  celldm(2)=   0.000000  celldm(3)=   0.000000
     celldm(4)=   0.000000  celldm(5)=   0.000000  celldm(6)=   0.000000

     crystal axes: (cart. coord. in units of alat)
               a(1) = (   0.995773   0.055113  -0.073480 )  
               a(2) = (  -0.503854   0.813149  -0.041487 )  
               a(3) = (   0.006577   0.048385   1.749199 )  

     reciprocal axes: (cart. coord. in units 2 pi/alat)
               b(1) = (  0.969558  0.599738 -0.020235 )  
               b(2) = ( -0.068041  1.185966 -0.032549 )  
               b(3) = (  0.039115  0.053322  0.570068 )  


     PseudoPot. # 1 for Si read from file:
     ../pseudo/Si.pz-vbc.UPF
     MD5 check sum: 6dfa03ddd5817404712e03e4d12deb78
     Pseudo is Norm-conserving, Zval =  4.0
     Generated by new atomic code, or converted to UPF format
     Using radial grid of  431 points,  2 beta functions with: 
                l(1) =   0
                l(2) =   1

     atomic species   valence    mass     pseudopotential
     Si                4.00    28.08600     Si( 1.00)

     No symmetry found


                                    s                        frac. trans.

      isym =  1     identity                                     

 cryst.   s( 1) = (     1          0          0      )
                  (     0          1          0      )
                  (     0          0          1      )

 cart.    s( 1) = (  1.0000000 -0.0000000  0.0000000 )
                  ( -0.0000000  1.0000000 -0.0000000 )
                  (  0.0000000  0.0000000  1.0000000 )


   Cartesian axes

     site n.     atom                  positions (alat units)
         1        Si     tau(   1) = (  -0.0023342   0.5725662   0.3851484  )
         2        Si     tau(   2) = (   0.5008300   0.3440798   1.2490838  )

   Crystallographic axes

     site n.     atom                  positions (cryst. coord.)
         1        Si     tau(   1) = (  0.3333333  0.6666667  0.2500000  )
         2        Si     tau(   2) = (  0.6666667  0.3333333  0.7500000  )

     number of k points=   512  Fermi-Dirac smearing, width (Ry)=  0.0019
                       cart. coord. in units 2pi/alat
        k(    1) = (   0.0000000   0.0000000   0.0000000), wk =   0.0039062
        k(    2) = (   0.0048894   0.0066653   0.0712585), wk =   0.0039062
        k(    3) = (   0.0097788   0.0133305   0.1425171), wk =   0.0039062
        k(    4) = (   0.0146681   0.0199958   0.2137756), wk =   0.0039062
        k(    5) = (  -0.0195575  -0.0266611  -0.2850341), wk =   0.0039062
        k(    6) = (  -0.0146681  -0.0199958  -0.2137756), wk =   0.0039062
        k(    7) = (  -0.0097788  -0.0133305  -0.1425171), wk =   0.0039062
        k(    8) = (  -0.0048894  -0.0066653  -0.0712585), wk =   0.0039062
        k(    9) = (  -0.0085051   0.1482458  -0.0040686), wk =   0.0039062
        k(   10) = (  -0.0036158   0.1549110   0.0671899), wk =   0.0039062
        k(   11) = (   0.0012736   0.1615763   0.1384484), wk =   0.0039062
        k(   12) = (   0.0061630   0.1682415   0.2097069), wk =   0.0039062
        k(   13) = (  -0.0280627   0.1215847  -0.2891027), wk =   0.0039062
        k(   14) = (  -0.0231733   0.1282500  -0.2178442), wk =   0.0039062
        k(   15) = (  -0.0182839   0.1349152  -0.1465857), wk =   0.0039062
        k(   16) = (  -0.0133945   0.1415805  -0.0753272), wk =   0.0039062
        k(   17) = (  -0.0170103   0.2964915  -0.0081373), wk =   0.0039062
        k(   18) = (  -0.0121209   0.3031568   0.0631212), wk =   0.0039062
        k(   19) = (  -0.0072315   0.3098220   0.1343798), wk =   0.0039062
        k(   20) = (  -0.0023422   0.3164873   0.2056383), wk =   0.0039062
        k(   21) = (  -0.0365678   0.2698304  -0.2931714), wk =   0.0039062
        k(   22) = (  -0.0316784   0.2764957  -0.2219129), wk =   0.0039062
        k(   23) = (  -0.0267890   0.2831610  -0.1506543), wk =   0.0039062
        k(   24) = (  -0.0218997   0.2898262  -0.0793958), wk =   0.0039062
        k(   25) = (  -0.0255154   0.4447373  -0.0122059), wk =   0.0039062
        k(   26) = (  -0.0206261   0.4514025   0.0590526), wk =   0.0039062
        k(   27) = (  -0.0157367   0.4580678   0.1303111), wk =   0.0039062
        k(   28) = (  -0.0108473   0.4647331   0.2015697), wk =   0.0039062
        k(   29) = (  -0.0450729   0.4180762  -0.2972400), wk =   0.0039062
        k(   30) = (  -0.0401836   0.4247415  -0.2259815), wk =   0.0039062
        k(   31) = (  -0.0352942   0.4314067  -0.1547230), wk =   0.0039062
        k(   32) = (  -0.0304048   0.4380720  -0.0834644), wk =   0.0039062
        k(   33) = (   0.0340206  -0.5929830   0.0162746), wk =   0.0039062
        k(   34) = (   0.0389100  -0.5863177   0.0875331), wk =   0.0039062
        k(   35) = (   0.0437993  -0.5796525   0.1587916), wk =   0.0039062
        k(   36) = (   0.0486887  -0.5729872   0.2300501), wk =   0.0039062
        k(   37) = (   0.0144631  -0.6196441  -0.2687595), wk =   0.0039062
        k(   38) = (   0.0193525  -0.6129788  -0.1975010), wk =   0.0039062
        k(   39) = (   0.0242418  -0.6063135  -0.1262425), wk =   0.0039062
        k(   40) = (   0.0291312  -0.5996483  -0.0549840), wk =   0.0039062
        k(   41) = (   0.0255154  -0.4447373   0.0122059), wk =   0.0039062
        k(   42) = (   0.0304048  -0.4380720   0.0834644), wk =   0.0039062
        k(   43) = (   0.0352942  -0.4314067   0.1547230), wk =   0.0039062
        k(   44) = (   0.0401836  -0.4247415   0.2259815), wk =   0.0039062
        k(   45) = (   0.0059579  -0.4713983  -0.2728282), wk =   0.0039062
        k(   46) = (   0.0108473  -0.4647331  -0.2015697), wk =   0.0039062
        k(   47) = (   0.0157367  -0.4580678  -0.1303111), wk =   0.0039062
        k(   48) = (   0.0206261  -0.4514025  -0.0590526), wk =   0.0039062
        k(   49) = (   0.0170103  -0.2964915   0.0081373), wk =   0.0039062
        k(   50) = (   0.0218997  -0.2898262   0.0793958), wk =   0.0039062
        k(   51) = (   0.0267890  -0.2831610   0.1506543), wk =   0.0039062
        k(   52) = (   0.0316784  -0.2764957   0.2219129), wk =   0.0039062
        k(   53) = (  -0.0025472  -0.3231526  -0.2768968), wk =   0.0039062
        k(   54) = (   0.0023422  -0.3164873  -0.2056383), wk =   0.0039062
        k(   55) = (   0.0072315  -0.3098220  -0.1343798), wk =   0.0039062
        k(   56) = (   0.0121209  -0.3031568  -0.0631212), wk =   0.0039062
        k(   57) = (   0.0085051  -0.1482458   0.0040686), wk =   0.0039062
        k(   58) = (   0.0133945  -0.1415805   0.0753272), wk =   0.0039062
        k(   59) = (   0.0182839  -0.1349152   0.1465857), wk =   0.0039062
        k(   60) = (   0.0231733  -0.1282500   0.2178442), wk =   0.0039062
        k(   61) = (  -0.0110524  -0.1749068  -0.2809655), wk =   0.0039062
        k(   62) = (  -0.0061630  -0.1682415  -0.2097069), wk =   0.0039062
        k(   63) = (  -0.0012736  -0.1615763  -0.1384484), wk =   0.0039062
        k(   64) = (   0.0036158  -0.1549110  -0.0671899), wk =   0.0039062
        k(   65) = (   0.1211948   0.0749673  -0.0025294), wk =   0.0039062
        k(   66) = (   0.1260842   0.0816326   0.0687291), wk =   0.0039062
        k(   67) = (   0.1309736   0.0882978   0.1399877), wk =   0.0039062
        k(   68) = (   0.1358629   0.0949631   0.2112462), wk =   0.0039062
        k(   69) = (   0.1016373   0.0483062  -0.2875635), wk =   0.0039062
        k(   70) = (   0.1065267   0.0549715  -0.2163050), wk =   0.0039062
        k(   71) = (   0.1114161   0.0616368  -0.1450464), wk =   0.0039062
        k(   72) = (   0.1163054   0.0683020  -0.0737879), wk =   0.0039062
        k(   73) = (   0.1126897   0.2232131  -0.0065980), wk =   0.0039062
        k(   74) = (   0.1175790   0.2298783   0.0646605), wk =   0.0039062
        k(   75) = (   0.1224684   0.2365436   0.1359190), wk =   0.0039062
        k(   76) = (   0.1273578   0.2432089   0.2071776), wk =   0.0039062
        k(   77) = (   0.0931322   0.1965520  -0.2916321), wk =   0.0039062
        k(   78) = (   0.0980215   0.2032173  -0.2203736), wk =   0.0039062
        k(   79) = (   0.1029109   0.2098825  -0.1491151), wk =   0.0039062
        k(   80) = (   0.1078003   0.2165478  -0.0778565), wk =   0.0039062
        k(   81) = (   0.1041845   0.3714588  -0.0106667), wk =   0.0039062
        k(   82) = (   0.1090739   0.3781241   0.0605919), wk =   0.0039062
        k(   83) = (   0.1139633   0.3847893   0.1318504), wk =   0.0039062
        k(   84) = (   0.1188526   0.3914546   0.2031089), wk =   0.0039062
        k(   85) = (   0.0846270   0.3447977  -0.2957008), wk =   0.0039062
        k(   86) = (   0.0895164   0.3514630  -0.2244422), wk =   0.0039062
        k(   87) = (   0.0944058   0.3581283  -0.1531837), wk =   0.0039062
        k(   88) = (   0.0992951   0.3647935  -0.0819252), wk =   0.0039062
        k(   89) = (   0.0956794   0.5197046  -0.0147353), wk =   0.0039062
        k(   90) = (   0.1005687   0.5263698   0.0565232), wk =   0.0039062
        k(   91) = (   0.1054581   0.5330351   0.1277818), wk =   0.0039062
        k(   92) = (   0.1103475   0.5397004   0.1990403), wk =   0.0039062
        k(   93) = (   0.0761219   0.4930435  -0.2997694), wk =   0.0039062
        k(   94) = (   0.0810112   0.4997088  -0.2285109), wk =   0.0039062
        k(   95) = (   0.0859006   0.5063740  -0.1572524), wk =   0.0039062
        k(   96) = (   0.0907900   0.5130393  -0.0859938), wk =   0.0039062
        k(   97) = (   0.1552154  -0.5180157   0.0137452), wk =   0.0039062
        k(   98) = (   0.1601048  -0.5113504   0.0850037), wk =   0.0039062
        k(   99) = (   0.1649941  -0.5046852   0.1562622), wk =   0.0039062
        k(  100) = (   0.1698835  -0.4980199   0.2275208), wk =   0.0039062
        k(  101) = (   0.1356579  -0.5446768  -0.2712889), wk =   0.0039062
        k(  102) = (   0.1405473  -0.5380115  -0.2000304), wk =   0.0039062
        k(  103) = (   0.1454366  -0.5313462  -0.1287719), wk =   0.0039062
        k(  104) = (   0.1503260  -0.5246810  -0.0575133), wk =   0.0039062
        k(  105) = (   0.1467102  -0.3697699   0.0096765), wk =   0.0039062
        k(  106) = (   0.1515996  -0.3631047   0.0809351), wk =   0.0039062
        k(  107) = (   0.1564890  -0.3564394   0.1521936), wk =   0.0039062
        k(  108) = (   0.1613784  -0.3497742   0.2234521), wk =   0.0039062
        k(  109) = (   0.1271527  -0.3964310  -0.2753576), wk =   0.0039062
        k(  110) = (   0.1320421  -0.3897657  -0.2040990), wk =   0.0039062
        k(  111) = (   0.1369315  -0.3831005  -0.1328405), wk =   0.0039062
        k(  112) = (   0.1418209  -0.3764352  -0.0615820), wk =   0.0039062
        k(  113) = (   0.1382051  -0.2215242   0.0056079), wk =   0.0039062
        k(  114) = (   0.1430945  -0.2148589   0.0768664), wk =   0.0039062
        k(  115) = (   0.1479839  -0.2081937   0.1481250), wk =   0.0039062
        k(  116) = (   0.1528732  -0.2015284   0.2193835), wk =   0.0039062
        k(  117) = (   0.1186476  -0.2481853  -0.2794262), wk =   0.0039062
        k(  118) = (   0.1235370  -0.2415200  -0.2081677), wk =   0.0039062
        k(  119) = (   0.1284264  -0.2348547  -0.1369092), wk =   0.0039062
        k(  120) = (   0.1333157  -0.2281895  -0.0656506), wk =   0.0039062
        k(  121) = (   0.1297000  -0.0732784   0.0015393), wk =   0.0039062
        k(  122) = (   0.1345893  -0.0666132   0.0727978), wk =   0.0039062
        k(  123) = (   0.1394787  -0.0599479   0.1440563), wk =   0.0039062
        k(  124) = (   0.1443681  -0.0532826   0.2153148), wk =   0.0039062
        k(  125) = (   0.1101425  -0.0999395  -0.2834948), wk =   0.0039062
        k(  126) = (   0.1150318  -0.0932742  -0.2122363), wk =   0.0039062
        k(  127) = (   0.1199212  -0.0866090  -0.1409778), wk =   0.0039062
        k(  128) = (   0.1248106  -0.0799437  -0.0697193), wk =   0.0039062
        k(  129) = (   0.2423896   0.1499346  -0.0050588), wk =   0.0039062
        k(  130) = (   0.2472790   0.1565999   0.0661998), wk =   0.0039062
        k(  131) = (   0.2521684   0.1632651   0.1374583), wk =   0.0039062
        k(  132) = (   0.2570578   0.1699304   0.2087168), wk =   0.0039062
        k(  133) = (   0.2228321   0.1232735  -0.2900929), wk =   0.0039062
        k(  134) = (   0.2277215   0.1299388  -0.2188343), wk =   0.0039062
        k(  135) = (   0.2326109   0.1366041  -0.1475758), wk =   0.0039062
        k(  136) = (   0.2375002   0.1432693  -0.0763173), wk =   0.0039062
        k(  137) = (   0.2338845   0.2981804  -0.0091274), wk =   0.0039062
        k(  138) = (   0.2387739   0.3048456   0.0621311), wk =   0.0039062
        k(  139) = (   0.2436632   0.3115109   0.1333897), wk =   0.0039062
        k(  140) = (   0.2485526   0.3181762   0.2046482), wk =   0.0039062
        k(  141) = (   0.2143270   0.2715193  -0.2941615), wk =   0.0039062
        k(  142) = (   0.2192163   0.2781846  -0.2229030), wk =   0.0039062
        k(  143) = (   0.2241057   0.2848498  -0.1516445), wk =   0.0039062
        k(  144) = (   0.2289951   0.2915151  -0.0803859), wk =   0.0039062
        k(  145) = (   0.2253793   0.4464261  -0.0131960), wk =   0.0039062
        k(  146) = (   0.2302687   0.4530914   0.0580625), wk =   0.0039062
        k(  147) = (   0.2351581   0.4597566   0.1293210), wk =   0.0039062
        k(  148) = (   0.2400475   0.4664219   0.2005795), wk =   0.0039062
        k(  149) = (   0.2058218   0.4197651  -0.2982301), wk =   0.0039062
        k(  150) = (   0.2107112   0.4264303  -0.2269716), wk =   0.0039062
        k(  151) = (   0.2156006   0.4330956  -0.1557131), wk =   0.0039062
        k(  152) = (   0.2204900   0.4397608  -0.0844546), wk =   0.0039062
        k(  153) = (   0.2168742   0.5946719  -0.0172647), wk =   0.0039062
        k(  154) = (   0.2217636   0.6013371   0.0539938), wk =   0.0039062
        k(  155) = (   0.2266529   0.6080024   0.1252524), wk =   0.0039062
        k(  156) = (   0.2315423   0.6146677   0.1965109), wk =   0.0039062
        k(  157) = (   0.1973167   0.5680108  -0.3022988), wk =   0.0039062
        k(  158) = (   0.2022061   0.5746761  -0.2310403), wk =   0.0039062
        k(  159) = (   0.2070954   0.5813413  -0.1597817), wk =   0.0039062
        k(  160) = (   0.2119848   0.5880066  -0.0885232), wk =   0.0039062
        k(  161) = (   0.2764102  -0.4430484   0.0112158), wk =   0.0039062
        k(  162) = (   0.2812996  -0.4363831   0.0824743), wk =   0.0039062
        k(  163) = (   0.2861890  -0.4297179   0.1537329), wk =   0.0039062
        k(  164) = (   0.2910783  -0.4230526   0.2249914), wk =   0.0039062
        k(  165) = (   0.2568527  -0.4697095  -0.2738183), wk =   0.0039062
        k(  166) = (   0.2617421  -0.4630442  -0.2025598), wk =   0.0039062
        k(  167) = (   0.2666315  -0.4563789  -0.1313013), wk =   0.0039062
        k(  168) = (   0.2715208  -0.4497137  -0.0600427), wk =   0.0039062
        k(  169) = (   0.2679051  -0.2948026   0.0071472), wk =   0.0039062
        k(  170) = (   0.2727944  -0.2881374   0.0784057), wk =   0.0039062
        k(  171) = (   0.2776838  -0.2814721   0.1496642), wk =   0.0039062
        k(  172) = (   0.2825732  -0.2748068   0.2209227), wk =   0.0039062
        k(  173) = (   0.2483476  -0.3214637  -0.2778869), wk =   0.0039062
        k(  174) = (   0.2532369  -0.3147984  -0.2066284), wk =   0.0039062
        k(  175) = (   0.2581263  -0.3081332  -0.1353699), wk =   0.0039062
        k(  176) = (   0.2630157  -0.3014679  -0.0641114), wk =   0.0039062
        k(  177) = (   0.2593999  -0.1465569   0.0030785), wk =   0.0039062
        k(  178) = (   0.2642893  -0.1398916   0.0743370), wk =   0.0039062
        k(  179) = (   0.2691787  -0.1332264   0.1455956), wk =   0.0039062
        k(  180) = (   0.2740680  -0.1265611   0.2168541), wk =   0.0039062
        k(  181) = (   0.2398424  -0.1732180  -0.2819556), wk =   0.0039062
        k(  182) = (   0.2447318  -0.1665527  -0.2106971), wk =   0.0039062
        k(  183) = (   0.2496212  -0.1598874  -0.1394385), wk =   0.0039062
        k(  184) = (   0.2545105  -0.1532222  -0.0681800), wk =   0.0039062
        k(  185) = (   0.2508948   0.0016889  -0.0009901), wk =   0.0039062
        k(  186) = (   0.2557841   0.0083541   0.0702684), wk =   0.0039062
        k(  187) = (   0.2606735   0.0150194   0.1415269), wk =   0.0039062
        k(  188) = (   0.2655629   0.0216847   0.2127855), wk =   0.0039062
        k(  189) = (   0.2313373  -0.0249722  -0.2860242), wk =   0.0039062
        k(  190) = (   0.2362266  -0.0183069  -0.2147657), wk =   0.0039062
        k(  191) = (   0.2411160  -0.0116417  -0.1435072), wk =   0.0039062
        k(  192) = (   0.2460054  -0.0049764  -0.0722486), wk =   0.0039062
        k(  193) = (   0.3635844   0.2249019  -0.0075881), wk =   0.0039062
        k(  194) = (   0.3684738   0.2315672   0.0636704), wk =   0.0039062
        k(  195) = (   0.3733632   0.2382324   0.1349289), wk =   0.0039062
        k(  196) = (   0.3782526   0.2448977   0.2061874), wk =   0.0039062
        k(  197) = (   0.3440269   0.1982409  -0.2926222), wk =   0.0039062
        k(  198) = (   0.3489163   0.2049061  -0.2213637), wk =   0.0039062
        k(  199) = (   0.3538057   0.2115714  -0.1501052), wk =   0.0039062
        k(  200) = (   0.3586951   0.2182367  -0.0788467), wk =   0.0039062
        k(  201) = (   0.3550793   0.3731477  -0.0116568), wk =   0.0039062
        k(  202) = (   0.3599687   0.3798129   0.0596017), wk =   0.0039062
        k(  203) = (   0.3648580   0.3864782   0.1308603), wk =   0.0039062
        k(  204) = (   0.3697474   0.3931435   0.2021188), wk =   0.0039062
        k(  205) = (   0.3355218   0.3464866  -0.2966909), wk =   0.0039062
        k(  206) = (   0.3404112   0.3531519  -0.2254324), wk =   0.0039062
        k(  207) = (   0.3453005   0.3598171  -0.1541738), wk =   0.0039062
        k(  208) = (   0.3501899   0.3664824  -0.0829153), wk =   0.0039062
        k(  209) = (   0.3465741   0.5213934  -0.0157254), wk =   0.0039062
        k(  210) = (   0.3514635   0.5280587   0.0555331), wk =   0.0039062
        k(  211) = (   0.3563529   0.5347240   0.1267916), wk =   0.0039062
        k(  212) = (   0.3612423   0.5413892   0.1980502), wk =   0.0039062
        k(  213) = (   0.3270166   0.4947324  -0.3007595), wk =   0.0039062
        k(  214) = (   0.3319060   0.5013976  -0.2295010), wk =   0.0039062
        k(  215) = (   0.3367954   0.5080629  -0.1582425), wk =   0.0039062
        k(  216) = (   0.3416848   0.5147282  -0.0869839), wk =   0.0039062
        k(  217) = (   0.3380690   0.6696392  -0.0197941), wk =   0.0039062
        k(  218) = (   0.3429584   0.6763044   0.0514645), wk =   0.0039062
        k(  219) = (   0.3478477   0.6829697   0.1227230), wk =   0.0039062
        k(  220) = (   0.3527371   0.6896350   0.1939815), wk =   0.0039062
        k(  221) = (   0.3185115   0.6429781  -0.3048282), wk =   0.0039062
        k(  222) = (   0.3234009   0.6496434  -0.2335696), wk =   0.0039062
        k(  223) = (   0.3282902   0.6563086  -0.1623111), wk =   0.0039062
        k(  224) = (   0.3331796   0.6629739  -0.0910526), wk =   0.0039062
        k(  225) = (   0.3976050  -0.3680811   0.0086864), wk =   0.0039062
        k(  226) = (   0.4024944  -0.3614158   0.0799449), wk =   0.0039062
        k(  227) = (   0.4073838  -0.3547506   0.1512035), wk =   0.0039062
        k(  228) = (   0.4122731  -0.3480853   0.2224620), wk =   0.0039062
        k(  229) = (   0.3780475  -0.3947422  -0.2763477), wk =   0.0039062
        k(  230) = (   0.3829369  -0.3880769  -0.2050892), wk =   0.0039062
        k(  231) = (   0.3878263  -0.3814116  -0.1338306), wk =   0.0039062
        k(  232) = (   0.3927156  -0.3747464  -0.0625721), wk =   0.0039062
        k(  233) = (   0.3890999  -0.2198353   0.0046178), wk =   0.0039062
        k(  234) = (   0.3939892  -0.2131701   0.0758763), wk =   0.0039062
        k(  235) = (   0.3988786  -0.2065048   0.1471348), wk =   0.0039062
        k(  236) = (   0.4037680  -0.1998395   0.2183934), wk =   0.0039062
        k(  237) = (   0.3695424  -0.2464964  -0.2804163), wk =   0.0039062
        k(  238) = (   0.3744317  -0.2398311  -0.2091578), wk =   0.0039062
        k(  239) = (   0.3793211  -0.2331659  -0.1378993), wk =   0.0039062
        k(  240) = (   0.3842105  -0.2265006  -0.0666407), wk =   0.0039062
        k(  241) = (   0.3805947  -0.0715896   0.0005491), wk =   0.0039062
        k(  242) = (   0.3854841  -0.0649243   0.0718077), wk =   0.0039062
        k(  243) = (   0.3903735  -0.0582591   0.1430662), wk =   0.0039062
        k(  244) = (   0.3952629  -0.0515938   0.2143247), wk =   0.0039062
        k(  245) = (   0.3610372  -0.0982507  -0.2844850), wk =   0.0039062
        k(  246) = (   0.3659266  -0.0915854  -0.2132264), wk =   0.0039062
        k(  247) = (   0.3708160  -0.0849201  -0.1419679), wk =   0.0039062
        k(  248) = (   0.3757053  -0.0782549  -0.0707094), wk =   0.0039062
        k(  249) = (   0.3720896   0.0766562  -0.0035195), wk =   0.0039062
        k(  250) = (   0.3769790   0.0833214   0.0677390), wk =   0.0039062
        k(  251) = (   0.3818683   0.0899867   0.1389976), wk =   0.0039062
        k(  252) = (   0.3867577   0.0966520   0.2102561), wk =   0.0039062
        k(  253) = (   0.3525321   0.0499951  -0.2885536), wk =   0.0039062
        k(  254) = (   0.3574215   0.0566604  -0.2172951), wk =   0.0039062
        k(  255) = (   0.3623108   0.0633256  -0.1460366), wk =   0.0039062
        k(  256) = (   0.3672002   0.0699909  -0.0747780), wk =   0.0039062
        k(  257) = (  -0.4847792  -0.2998692   0.0101175), wk =   0.0039062
        k(  258) = (  -0.4798899  -0.2932040   0.0813760), wk =   0.0039062
        k(  259) = (  -0.4750005  -0.2865387   0.1526346), wk =   0.0039062
        k(  260) = (  -0.4701111  -0.2798734   0.2238931), wk =   0.0039062
        k(  261) = (  -0.5043367  -0.3265303  -0.2749166), wk =   0.0039062
        k(  262) = (  -0.4994474  -0.3198650  -0.2036581), wk =   0.0039062
        k(  263) = (  -0.4945580  -0.3131998  -0.1323995), wk =   0.0039062
        k(  264) = (  -0.4896686  -0.3065345  -0.0611410), wk =   0.0039062
        k(  265) = (  -0.4932844  -0.1516235   0.0060489), wk =   0.0039062
        k(  266) = (  -0.4883950  -0.1449582   0.0773074), wk =   0.0039062
        k(  267) = (  -0.4835056  -0.1382929   0.1485659), wk =   0.0039062
        k(  268) = (  -0.4786163  -0.1316277   0.2198245), wk =   0.0039062
        k(  269) = (  -0.5128419  -0.1782845  -0.2789852), wk =   0.0039062
        k(  270) = (  -0.5079525  -0.1716193  -0.2077267), wk =   0.0039062
        k(  271) = (  -0.5030631  -0.1649540  -0.1364682), wk =   0.0039062
        k(  272) = (  -0.4981738  -0.1582887  -0.0652096), wk =   0.0039062
        k(  273) = (  -0.5017895  -0.0033777   0.0019802), wk =   0.0039062
        k(  274) = (  -0.4969002   0.0032875   0.0732388), wk =   0.0039062
        k(  275) = (  -0.4920108   0.0099528   0.1444973), wk =   0.0039062
        k(  276) = (  -0.4871214   0.0166181   0.2157558), wk =   0.0039062
        k(  277) = (  -0.5213470  -0.0300388  -0.2830539), wk =   0.0039062
        k(  278) = (  -0.5164577  -0.0233735  -0.2117953), wk =   0.0039062
        k(  279) = (  -0.5115683  -0.0167082  -0.1405368), wk =   0.0039062
        k(  280) = (  -0.5066789  -0.0100430  -0.0692783), wk =   0.0039062
        k(  281) = (  -0.5102947   0.1448680  -0.0020884), wk =   0.0039062
        k(  282) = (  -0.5054053   0.1515333   0.0691701), wk =   0.0039062
        k(  283) = (  -0.5005159   0.1581986   0.1404286), wk =   0.0039062
        k(  284) = (  -0.4956266   0.1648638   0.2116872), wk =   0.0039062
        k(  285) = (  -0.5298522   0.1182070  -0.2871225), wk =   0.0039062
        k(  286) = (  -0.5249628   0.1248722  -0.2158640), wk =   0.0039062
        k(  287) = (  -0.5200734   0.1315375  -0.1446055), wk =   0.0039062
        k(  288) = (  -0.5151841   0.1382028  -0.0733469), wk =   0.0039062
        k(  289) = (  -0.4507587  -0.8928522   0.0263921), wk =   0.0039062
        k(  290) = (  -0.4458693  -0.8861870   0.0976506), wk =   0.0039062
        k(  291) = (  -0.4409799  -0.8795217   0.1689091), wk =   0.0039062
        k(  292) = (  -0.4360905  -0.8728564   0.2401677), wk =   0.0039062
        k(  293) = (  -0.4703162  -0.9195133  -0.2586420), wk =   0.0039062
        k(  294) = (  -0.4654268  -0.9128480  -0.1873835), wk =   0.0039062
        k(  295) = (  -0.4605374  -0.9061828  -0.1161250), wk =   0.0039062
        k(  296) = (  -0.4556480  -0.8995175  -0.0448664), wk =   0.0039062
        k(  297) = (  -0.4592638  -0.7446065   0.0223234), wk =   0.0039062
        k(  298) = (  -0.4543744  -0.7379412   0.0935820), wk =   0.0039062
        k(  299) = (  -0.4494851  -0.7312759   0.1648405), wk =   0.0039062
        k(  300) = (  -0.4445957  -0.7246107   0.2360990), wk =   0.0039062
        k(  301) = (  -0.4788213  -0.7712675  -0.2627107), wk =   0.0039062
        k(  302) = (  -0.4739319  -0.7646023  -0.1914521), wk =   0.0039062
        k(  303) = (  -0.4690426  -0.7579370  -0.1201936), wk =   0.0039062
        k(  304) = (  -0.4641532  -0.7512717  -0.0489351), wk =   0.0039062
        k(  305) = (  -0.4677690  -0.5963607   0.0182548), wk =   0.0039062
        k(  306) = (  -0.4628796  -0.5896955   0.0895133), wk =   0.0039062
        k(  307) = (  -0.4579902  -0.5830302   0.1607718), wk =   0.0039062
        k(  308) = (  -0.4531008  -0.5763649   0.2320304), wk =   0.0039062
        k(  309) = (  -0.4873265  -0.6230218  -0.2667793), wk =   0.0039062
        k(  310) = (  -0.4824371  -0.6163565  -0.1955208), wk =   0.0039062
        k(  311) = (  -0.4775477  -0.6096913  -0.1242623), wk =   0.0039062
        k(  312) = (  -0.4726583  -0.6030260  -0.0530037), wk =   0.0039062
        k(  313) = (  -0.4762741  -0.4481150   0.0141862), wk =   0.0039062
        k(  314) = (  -0.4713847  -0.4414497   0.0854447), wk =   0.0039062
        k(  315) = (  -0.4664953  -0.4347844   0.1567032), wk =   0.0039062
        k(  316) = (  -0.4616060  -0.4281192   0.2279617), wk =   0.0039062
        k(  317) = (  -0.4958316  -0.4747760  -0.2708479), wk =   0.0039062
        k(  318) = (  -0.4909422  -0.4681108  -0.1995894), wk =   0.0039062
        k(  319) = (  -0.4860529  -0.4614455  -0.1283309), wk =   0.0039062
        k(  320) = (  -0.4811635  -0.4547802  -0.0570724), wk =   0.0039062
        k(  321) = (  -0.3635844  -0.2249019   0.0075881), wk =   0.0039062
        k(  322) = (  -0.3586951  -0.2182367   0.0788467), wk =   0.0039062
        k(  323) = (  -0.3538057  -0.2115714   0.1501052), wk =   0.0039062
        k(  324) = (  -0.3489163  -0.2049061   0.2213637), wk =   0.0039062
        k(  325) = (  -0.3831419  -0.2515630  -0.2774460), wk =   0.0039062
        k(  326) = (  -0.3782526  -0.2448977  -0.2061874), wk =   0.0039062
        k(  327) = (  -0.3733632  -0.2382324  -0.1349289), wk =   0.0039062
        k(  328) = (  -0.3684738  -0.2315672  -0.0636704), wk =   0.0039062
        k(  329) = (  -0.3720896  -0.0766562   0.0035195), wk =   0.0039062
        k(  330) = (  -0.3672002  -0.0699909   0.0747780), wk =   0.0039062
        k(  331) = (  -0.3623108  -0.0633256   0.1460366), wk =   0.0039062
        k(  332) = (  -0.3574215  -0.0566604   0.2172951), wk =   0.0039062
        k(  333) = (  -0.3916471  -0.1033172  -0.2815146), wk =   0.0039062
        k(  334) = (  -0.3867577  -0.0966520  -0.2102561), wk =   0.0039062
        k(  335) = (  -0.3818683  -0.0899867  -0.1389976), wk =   0.0039062
        k(  336) = (  -0.3769790  -0.0833214  -0.0677390), wk =   0.0039062
        k(  337) = (  -0.3805947   0.0715896  -0.0005491), wk =   0.0039062
        k(  338) = (  -0.3757053   0.0782549   0.0707094), wk =   0.0039062
        k(  339) = (  -0.3708160   0.0849201   0.1419679), wk =   0.0039062
        k(  340) = (  -0.3659266   0.0915854   0.2132264), wk =   0.0039062
        k(  341) = (  -0.4001522   0.0449285  -0.2855832), wk =   0.0039062
        k(  342) = (  -0.3952629   0.0515938  -0.2143247), wk =   0.0039062
        k(  343) = (  -0.3903735   0.0582591  -0.1430662), wk =   0.0039062
        k(  344) = (  -0.3854841   0.0649243  -0.0718077), wk =   0.0039062
        k(  345) = (  -0.3890999   0.2198353  -0.0046178), wk =   0.0039062
        k(  346) = (  -0.3842105   0.2265006   0.0666407), wk =   0.0039062
        k(  347) = (  -0.3793211   0.2331659   0.1378993), wk =   0.0039062
        k(  348) = (  -0.3744317   0.2398311   0.2091578), wk =   0.0039062
        k(  349) = (  -0.4086574   0.1931743  -0.2896519), wk =   0.0039062
        k(  350) = (  -0.4037680   0.1998395  -0.2183934), wk =   0.0039062
        k(  351) = (  -0.3988786   0.2065048  -0.1471348), wk =   0.0039062
        k(  352) = (  -0.3939892   0.2131701  -0.0758763), wk =   0.0039062
        k(  353) = (  -0.3295638  -0.8178849   0.0238627), wk =   0.0039062
        k(  354) = (  -0.3246745  -0.8112197   0.0951212), wk =   0.0039062
        k(  355) = (  -0.3197851  -0.8045544   0.1663798), wk =   0.0039062
        k(  356) = (  -0.3148957  -0.7978891   0.2376383), wk =   0.0039062
        k(  357) = (  -0.3491214  -0.8445460  -0.2611714), wk =   0.0039062
        k(  358) = (  -0.3442320  -0.8378807  -0.1899129), wk =   0.0039062
        k(  359) = (  -0.3393426  -0.8312155  -0.1186544), wk =   0.0039062
        k(  360) = (  -0.3344532  -0.8245502  -0.0473958), wk =   0.0039062
        k(  361) = (  -0.3380690  -0.6696392   0.0197941), wk =   0.0039062
        k(  362) = (  -0.3331796  -0.6629739   0.0910526), wk =   0.0039062
        k(  363) = (  -0.3282902  -0.6563086   0.1623111), wk =   0.0039062
        k(  364) = (  -0.3234009  -0.6496434   0.2335696), wk =   0.0039062
        k(  365) = (  -0.3576265  -0.6963002  -0.2652400), wk =   0.0039062
        k(  366) = (  -0.3527371  -0.6896350  -0.1939815), wk =   0.0039062
        k(  367) = (  -0.3478477  -0.6829697  -0.1227230), wk =   0.0039062
        k(  368) = (  -0.3429584  -0.6763044  -0.0514645), wk =   0.0039062
        k(  369) = (  -0.3465741  -0.5213934   0.0157254), wk =   0.0039062
        k(  370) = (  -0.3416848  -0.5147282   0.0869839), wk =   0.0039062
        k(  371) = (  -0.3367954  -0.5080629   0.1582425), wk =   0.0039062
        k(  372) = (  -0.3319060  -0.5013976   0.2295010), wk =   0.0039062
        k(  373) = (  -0.3661316  -0.5480545  -0.2693087), wk =   0.0039062
        k(  374) = (  -0.3612423  -0.5413892  -0.1980502), wk =   0.0039062
        k(  375) = (  -0.3563529  -0.5347240  -0.1267916), wk =   0.0039062
        k(  376) = (  -0.3514635  -0.5280587  -0.0555331), wk =   0.0039062
        k(  377) = (  -0.3550793  -0.3731477   0.0116568), wk =   0.0039062
        k(  378) = (  -0.3501899  -0.3664824   0.0829153), wk =   0.0039062
        k(  379) = (  -0.3453005  -0.3598171   0.1541738), wk =   0.0039062
        k(  380) = (  -0.3404112  -0.3531519   0.2254324), wk =   0.0039062
        k(  381) = (  -0.3746368  -0.3998087  -0.2733773), wk =   0.0039062
        k(  382) = (  -0.3697474  -0.3931435  -0.2021188), wk =   0.0039062
        k(  383) = (  -0.3648580  -0.3864782  -0.1308603), wk =   0.0039062
        k(  384) = (  -0.3599687  -0.3798129  -0.0596017), wk =   0.0039062
        k(  385) = (  -0.2423896  -0.1499346   0.0050588), wk =   0.0039062
        k(  386) = (  -0.2375002  -0.1432693   0.0763173), wk =   0.0039062
        k(  387) = (  -0.2326109  -0.1366041   0.1475758), wk =   0.0039062
        k(  388) = (  -0.2277215  -0.1299388   0.2188343), wk =   0.0039062
        k(  389) = (  -0.2619471  -0.1765957  -0.2799753), wk =   0.0039062
        k(  390) = (  -0.2570578  -0.1699304  -0.2087168), wk =   0.0039062
        k(  391) = (  -0.2521684  -0.1632651  -0.1374583), wk =   0.0039062
        k(  392) = (  -0.2472790  -0.1565999  -0.0661998), wk =   0.0039062
        k(  393) = (  -0.2508948  -0.0016889   0.0009901), wk =   0.0039062
        k(  394) = (  -0.2460054   0.0049764   0.0722486), wk =   0.0039062
        k(  395) = (  -0.2411160   0.0116417   0.1435072), wk =   0.0039062
        k(  396) = (  -0.2362266   0.0183069   0.2147657), wk =   0.0039062
        k(  397) = (  -0.2704523  -0.0283499  -0.2840440), wk =   0.0039062
        k(  398) = (  -0.2655629  -0.0216847  -0.2127855), wk =   0.0039062
        k(  399) = (  -0.2606735  -0.0150194  -0.1415269), wk =   0.0039062
        k(  400) = (  -0.2557841  -0.0083541  -0.0702684), wk =   0.0039062
        k(  401) = (  -0.2593999   0.1465569  -0.0030785), wk =   0.0039062
        k(  402) = (  -0.2545105   0.1532222   0.0681800), wk =   0.0039062
        k(  403) = (  -0.2496212   0.1598874   0.1394385), wk =   0.0039062
        k(  404) = (  -0.2447318   0.1665527   0.2106971), wk =   0.0039062
        k(  405) = (  -0.2789574   0.1198958  -0.2881126), wk =   0.0039062
        k(  406) = (  -0.2740680   0.1265611  -0.2168541), wk =   0.0039062
        k(  407) = (  -0.2691787   0.1332264  -0.1455956), wk =   0.0039062
        k(  408) = (  -0.2642893   0.1398916  -0.0743370), wk =   0.0039062
        k(  409) = (  -0.2679051   0.2948026  -0.0071472), wk =   0.0039062
        k(  410) = (  -0.2630157   0.3014679   0.0641114), wk =   0.0039062
        k(  411) = (  -0.2581263   0.3081332   0.1353699), wk =   0.0039062
        k(  412) = (  -0.2532369   0.3147984   0.2066284), wk =   0.0039062
        k(  413) = (  -0.2874626   0.2681416  -0.2921813), wk =   0.0039062
        k(  414) = (  -0.2825732   0.2748068  -0.2209227), wk =   0.0039062
        k(  415) = (  -0.2776838   0.2814721  -0.1496642), wk =   0.0039062
        k(  416) = (  -0.2727944   0.2881374  -0.0784057), wk =   0.0039062
        k(  417) = (  -0.2083690  -0.7429176   0.0213333), wk =   0.0039062
        k(  418) = (  -0.2034797  -0.7362524   0.0925918), wk =   0.0039062
        k(  419) = (  -0.1985903  -0.7295871   0.1638504), wk =   0.0039062
        k(  420) = (  -0.1937009  -0.7229218   0.2351089), wk =   0.0039062
        k(  421) = (  -0.2279265  -0.7695787  -0.2637008), wk =   0.0039062
        k(  422) = (  -0.2230372  -0.7629134  -0.1924423), wk =   0.0039062
        k(  423) = (  -0.2181478  -0.7562481  -0.1211837), wk =   0.0039062
        k(  424) = (  -0.2132584  -0.7495829  -0.0499252), wk =   0.0039062
        k(  425) = (  -0.2168742  -0.5946719   0.0172647), wk =   0.0039062
        k(  426) = (  -0.2119848  -0.5880066   0.0885232), wk =   0.0039062
        k(  427) = (  -0.2070954  -0.5813413   0.1597817), wk =   0.0039062
        k(  428) = (  -0.2022061  -0.5746761   0.2310403), wk =   0.0039062
        k(  429) = (  -0.2364317  -0.6213329  -0.2677694), wk =   0.0039062
        k(  430) = (  -0.2315423  -0.6146677  -0.1965109), wk =   0.0039062
        k(  431) = (  -0.2266529  -0.6080024  -0.1252524), wk =   0.0039062
        k(  432) = (  -0.2217636  -0.6013371  -0.0539938), wk =   0.0039062
        k(  433) = (  -0.2253793  -0.4464261   0.0131960), wk =   0.0039062
        k(  434) = (  -0.2204900  -0.4397608   0.0844546), wk =   0.0039062
        k(  435) = (  -0.2156006  -0.4330956   0.1557131), wk =   0.0039062
        k(  436) = (  -0.2107112  -0.4264303   0.2269716), wk =   0.0039062
        k(  437) = (  -0.2449368  -0.4730872  -0.2718381), wk =   0.0039062
        k(  438) = (  -0.2400475  -0.4664219  -0.2005795), wk =   0.0039062
        k(  439) = (  -0.2351581  -0.4597566  -0.1293210), wk =   0.0039062
        k(  440) = (  -0.2302687  -0.4530914  -0.0580625), wk =   0.0039062
        k(  441) = (  -0.2338845  -0.2981804   0.0091274), wk =   0.0039062
        k(  442) = (  -0.2289951  -0.2915151   0.0803859), wk =   0.0039062
        k(  443) = (  -0.2241057  -0.2848498   0.1516445), wk =   0.0039062
        k(  444) = (  -0.2192163  -0.2781846   0.2229030), wk =   0.0039062
        k(  445) = (  -0.2534420  -0.3248414  -0.2759067), wk =   0.0039062
        k(  446) = (  -0.2485526  -0.3181762  -0.2046482), wk =   0.0039062
        k(  447) = (  -0.2436632  -0.3115109  -0.1333897), wk =   0.0039062
        k(  448) = (  -0.2387739  -0.3048456  -0.0621311), wk =   0.0039062
        k(  449) = (  -0.1211948  -0.0749673   0.0025294), wk =   0.0039062
        k(  450) = (  -0.1163054  -0.0683020   0.0737879), wk =   0.0039062
        k(  451) = (  -0.1114161  -0.0616368   0.1450464), wk =   0.0039062
        k(  452) = (  -0.1065267  -0.0549715   0.2163050), wk =   0.0039062
        k(  453) = (  -0.1407523  -0.1016284  -0.2825047), wk =   0.0039062
        k(  454) = (  -0.1358629  -0.0949631  -0.2112462), wk =   0.0039062
        k(  455) = (  -0.1309736  -0.0882978  -0.1399877), wk =   0.0039062
        k(  456) = (  -0.1260842  -0.0816326  -0.0687291), wk =   0.0039062
        k(  457) = (  -0.1297000   0.0732784  -0.0015393), wk =   0.0039062
        k(  458) = (  -0.1248106   0.0799437   0.0697193), wk =   0.0039062
        k(  459) = (  -0.1199212   0.0866090   0.1409778), wk =   0.0039062
        k(  460) = (  -0.1150318   0.0932742   0.2122363), wk =   0.0039062
        k(  461) = (  -0.1492575   0.0466174  -0.2865734), wk =   0.0039062
        k(  462) = (  -0.1443681   0.0532826  -0.2153148), wk =   0.0039062
        k(  463) = (  -0.1394787   0.0599479  -0.1440563), wk =   0.0039062
        k(  464) = (  -0.1345893   0.0666132  -0.0727978), wk =   0.0039062
        k(  465) = (  -0.1382051   0.2215242  -0.0056079), wk =   0.0039062
        k(  466) = (  -0.1333157   0.2281895   0.0656506), wk =   0.0039062
        k(  467) = (  -0.1284264   0.2348547   0.1369092), wk =   0.0039062
        k(  468) = (  -0.1235370   0.2415200   0.2081677), wk =   0.0039062
        k(  469) = (  -0.1577626   0.1948631  -0.2906420), wk =   0.0039062
        k(  470) = (  -0.1528732   0.2015284  -0.2193835), wk =   0.0039062
        k(  471) = (  -0.1479839   0.2081937  -0.1481250), wk =   0.0039062
        k(  472) = (  -0.1430945   0.2148589  -0.0768664), wk =   0.0039062
        k(  473) = (  -0.1467102   0.3697699  -0.0096765), wk =   0.0039062
        k(  474) = (  -0.1418209   0.3764352   0.0615820), wk =   0.0039062
        k(  475) = (  -0.1369315   0.3831005   0.1328405), wk =   0.0039062
        k(  476) = (  -0.1320421   0.3897657   0.2040990), wk =   0.0039062
        k(  477) = (  -0.1662678   0.3431089  -0.2947106), wk =   0.0039062
        k(  478) = (  -0.1613784   0.3497742  -0.2234521), wk =   0.0039062
        k(  479) = (  -0.1564890   0.3564394  -0.1521936), wk =   0.0039062
        k(  480) = (  -0.1515996   0.3631047  -0.0809351), wk =   0.0039062
        k(  481) = (  -0.0871742  -0.6679503   0.0188039), wk =   0.0039062
        k(  482) = (  -0.0822849  -0.6612850   0.0900625), wk =   0.0039062
        k(  483) = (  -0.0773955  -0.6546198   0.1613210), wk =   0.0039062
        k(  484) = (  -0.0725061  -0.6479545   0.2325795), wk =   0.0039062
        k(  485) = (  -0.1067317  -0.6946114  -0.2662302), wk =   0.0039062
        k(  486) = (  -0.1018424  -0.6879461  -0.1949716), wk =   0.0039062
        k(  487) = (  -0.0969530  -0.6812808  -0.1237131), wk =   0.0039062
        k(  488) = (  -0.0920636  -0.6746156  -0.0524546), wk =   0.0039062
        k(  489) = (  -0.0956794  -0.5197046   0.0147353), wk =   0.0039062
        k(  490) = (  -0.0907900  -0.5130393   0.0859938), wk =   0.0039062
        k(  491) = (  -0.0859006  -0.5063740   0.1572524), wk =   0.0039062
        k(  492) = (  -0.0810112  -0.4997088   0.2285109), wk =   0.0039062
        k(  493) = (  -0.1152369  -0.5463656  -0.2702988), wk =   0.0039062
        k(  494) = (  -0.1103475  -0.5397004  -0.1990403), wk =   0.0039062
        k(  495) = (  -0.1054581  -0.5330351  -0.1277818), wk =   0.0039062
        k(  496) = (  -0.1005687  -0.5263698  -0.0565232), wk =   0.0039062
        k(  497) = (  -0.1041845  -0.3714588   0.0106667), wk =   0.0039062
        k(  498) = (  -0.0992951  -0.3647935   0.0819252), wk =   0.0039062
        k(  499) = (  -0.0944058  -0.3581283   0.1531837), wk =   0.0039062
        k(  500) = (  -0.0895164  -0.3514630   0.2244422), wk =   0.0039062
        k(  501) = (  -0.1237420  -0.3981199  -0.2743674), wk =   0.0039062
        k(  502) = (  -0.1188526  -0.3914546  -0.2031089), wk =   0.0039062
        k(  503) = (  -0.1139633  -0.3847893  -0.1318504), wk =   0.0039062
        k(  504) = (  -0.1090739  -0.3781241  -0.0605919), wk =   0.0039062
        k(  505) = (  -0.1126897  -0.2232131   0.0065980), wk =   0.0039062
        k(  506) = (  -0.1078003  -0.2165478   0.0778565), wk =   0.0039062
        k(  507) = (  -0.1029109  -0.2098825   0.1491151), wk =   0.0039062
        k(  508) = (  -0.0980215  -0.2032173   0.2203736), wk =   0.0039062
        k(  509) = (  -0.1322472  -0.2498741  -0.2784361), wk =   0.0039062
        k(  510) = (  -0.1273578  -0.2432089  -0.2071776), wk =   0.0039062
        k(  511) = (  -0.1224684  -0.2365436  -0.1359190), wk =   0.0039062
        k(  512) = (  -0.1175790  -0.2298783  -0.0646605), wk =   0.0039062

                       cryst. coord.
        k(    1) = (   0.0000000   0.0000000   0.0000000), wk =   0.0039062
        k(    2) = (   0.0000000   0.0000000   0.1250000), wk =   0.0039062
        k(    3) = (   0.0000000   0.0000000   0.2500000), wk =   0.0039062
        k(    4) = (   0.0000000   0.0000000   0.3750000), wk =   0.0039062
        k(    5) = (  -0.0000000   0.0000000  -0.5000000), wk =   0.0039062
        k(    6) = (  -0.0000000  -0.0000000  -0.3750000), wk =   0.0039062
        k(    7) = (  -0.0000000   0.0000000  -0.2500000), wk =   0.0039062
        k(    8) = (  -0.0000000   0.0000000  -0.1250000), wk =   0.0039062
        k(    9) = (   0.0000000   0.1250000   0.0000000), wk =   0.0039062
        k(   10) = (   0.0000000   0.1250000   0.1250000), wk =   0.0039062
        k(   11) = (   0.0000000   0.1250000   0.2500000), wk =   0.0039062
        k(   12) = (   0.0000000   0.1250000   0.3750000), wk =   0.0039062
        k(   13) = (   0.0000000   0.1250000  -0.5000000), wk =   0.0039062
        k(   14) = (   0.0000000   0.1250000  -0.3750000), wk =   0.0039062
        k(   15) = (   0.0000000   0.1250000  -0.2500000), wk =   0.0039062
        k(   16) = (   0.0000000   0.1250000  -0.1250000), wk =   0.0039062
        k(   17) = (   0.0000000   0.2500000   0.0000000), wk =   0.0039062
        k(   18) = (   0.0000000   0.2500000   0.1250000), wk =   0.0039062
        k(   19) = (   0.0000000   0.2500000   0.2500000), wk =   0.0039062
        k(   20) = (   0.0000000   0.2500000   0.3750000), wk =   0.0039062
        k(   21) = (   0.0000000   0.2500000  -0.5000000), wk =   0.0039062
        k(   22) = (  -0.0000000   0.2500000  -0.3750000), wk =   0.0039062
        k(   23) = (   0.0000000   0.2500000  -0.2500000), wk =   0.0039062
        k(   24) = (   0.0000000   0.2500000  -0.1250000), wk =   0.0039062
        k(   25) = (   0.0000000   0.3750000   0.0000000), wk =   0.0039062
        k(   26) = (   0.0000000   0.3750000   0.1250000), wk =   0.0039062
        k(   27) = (   0.0000000   0.3750000   0.2500000), wk =   0.0039062
        k(   28) = (   0.0000000   0.3750000   0.3750000), wk =   0.0039062
        k(   29) = (   0.0000000   0.3750000  -0.5000000), wk =   0.0039062
        k(   30) = (   0.0000000   0.3750000  -0.3750000), wk =   0.0039062
        k(   31) = (   0.0000000   0.3750000  -0.2500000), wk =   0.0039062
        k(   32) = (   0.0000000   0.3750000  -0.1250000), wk =   0.0039062
        k(   33) = (  -0.0000000  -0.5000000  -0.0000000), wk =   0.0039062
        k(   34) = (   0.0000000  -0.5000000   0.1250000), wk =   0.0039062
        k(   35) = (  -0.0000000  -0.5000000   0.2500000), wk =   0.0039062
        k(   36) = (   0.0000000  -0.5000000   0.3750000), wk =   0.0039062
        k(   37) = (  -0.0000000  -0.5000000  -0.5000000), wk =   0.0039062
        k(   38) = (  -0.0000000  -0.5000000  -0.3750000), wk =   0.0039062
        k(   39) = (  -0.0000000  -0.5000000  -0.2500000), wk =   0.0039062
        k(   40) = (  -0.0000000  -0.5000000  -0.1250000), wk =   0.0039062
        k(   41) = (  -0.0000000  -0.3750000  -0.0000000), wk =   0.0039062
        k(   42) = (  -0.0000000  -0.3750000   0.1250000), wk =   0.0039062
        k(   43) = (  -0.0000000  -0.3750000   0.2500000), wk =   0.0039062
        k(   44) = (  -0.0000000  -0.3750000   0.3750000), wk =   0.0039062
        k(   45) = (  -0.0000000  -0.3750000  -0.5000000), wk =   0.0039062
        k(   46) = (  -0.0000000  -0.3750000  -0.3750000), wk =   0.0039062
        k(   47) = (  -0.0000000  -0.3750000  -0.2500000), wk =   0.0039062
        k(   48) = (  -0.0000000  -0.3750000  -0.1250000), wk =   0.0039062
        k(   49) = (  -0.0000000  -0.2500000  -0.0000000), wk =   0.0039062
        k(   50) = (  -0.0000000  -0.2500000   0.1250000), wk =   0.0039062
        k(   51) = (  -0.0000000  -0.2500000   0.2500000), wk =   0.0039062
        k(   52) = (   0.0000000  -0.2500000   0.3750000), wk =   0.0039062
        k(   53) = (  -0.0000000  -0.2500000  -0.5000000), wk =   0.0039062
        k(   54) = (  -0.0000000  -0.2500000  -0.3750000), wk =   0.0039062
        k(   55) = (  -0.0000000  -0.2500000  -0.2500000), wk =   0.0039062
        k(   56) = (  -0.0000000  -0.2500000  -0.1250000), wk =   0.0039062
        k(   57) = (  -0.0000000  -0.1250000  -0.0000000), wk =   0.0039062
        k(   58) = (  -0.0000000  -0.1250000   0.1250000), wk =   0.0039062
        k(   59) = (   0.0000000  -0.1250000   0.2500000), wk =   0.0039062
        k(   60) = (   0.0000000  -0.1250000   0.3750000), wk =   0.0039062
        k(   61) = (  -0.0000000  -0.1250000  -0.5000000), wk =   0.0039062
        k(   62) = (  -0.0000000  -0.1250000  -0.3750000), wk =   0.0039062
        k(   63) = (  -0.0000000  -0.1250000  -0.2500000), wk =   0.0039062
        k(   64) = (  -0.0000000  -0.1250000  -0.1250000), wk =   0.0039062
        k(   65) = (   0.1250000  -0.0000000   0.0000000), wk =   0.0039062
        k(   66) = (   0.1250000   0.0000000   0.1250000), wk =   0.0039062
        k(   67) = (   0.1250000  -0.0000000   0.2500000), wk =   0.0039062
        k(   68) = (   0.1250000   0.0000000   0.3750000), wk =   0.0039062
        k(   69) = (   0.1250000  -0.0000000  -0.5000000), wk =   0.0039062
        k(   70) = (   0.1250000  -0.0000000  -0.3750000), wk =   0.0039062
        k(   71) = (   0.1250000   0.0000000  -0.2500000), wk =   0.0039062
        k(   72) = (   0.1250000  -0.0000000  -0.1250000), wk =   0.0039062
        k(   73) = (   0.1250000   0.1250000   0.0000000), wk =   0.0039062
        k(   74) = (   0.1250000   0.1250000   0.1250000), wk =   0.0039062
        k(   75) = (   0.1250000   0.1250000   0.2500000), wk =   0.0039062
        k(   76) = (   0.1250000   0.1250000   0.3750000), wk =   0.0039062
        k(   77) = (   0.1250000   0.1250000  -0.5000000), wk =   0.0039062
        k(   78) = (   0.1250000   0.1250000  -0.3750000), wk =   0.0039062
        k(   79) = (   0.1250000   0.1250000  -0.2500000), wk =   0.0039062
        k(   80) = (   0.1250000   0.1250000  -0.1250000), wk =   0.0039062
        k(   81) = (   0.1250000   0.2500000  -0.0000000), wk =   0.0039062
        k(   82) = (   0.1250000   0.2500000   0.1250000), wk =   0.0039062
        k(   83) = (   0.1250000   0.2500000   0.2500000), wk =   0.0039062
        k(   84) = (   0.1250000   0.2500000   0.3750000), wk =   0.0039062
        k(   85) = (   0.1250000   0.2500000  -0.5000000), wk =   0.0039062
        k(   86) = (   0.1250000   0.2500000  -0.3750000), wk =   0.0039062
        k(   87) = (   0.1250000   0.2500000  -0.2500000), wk =   0.0039062
        k(   88) = (   0.1250000   0.2500000  -0.1250000), wk =   0.0039062
        k(   89) = (   0.1250000   0.3750000   0.0000000), wk =   0.0039062
        k(   90) = (   0.1250000   0.3750000   0.1250000), wk =   0.0039062
        k(   91) = (   0.1250000   0.3750000   0.2500000), wk =   0.0039062
        k(   92) = (   0.1250000   0.3750000   0.3750000), wk =   0.0039062
        k(   93) = (   0.1250000   0.3750000  -0.5000000), wk =   0.0039062
        k(   94) = (   0.1250000   0.3750000  -0.3750000), wk =   0.0039062
        k(   95) = (   0.1250000   0.3750000  -0.2500000), wk =   0.0039062
        k(   96) = (   0.1250000   0.3750000  -0.1250000), wk =   0.0039062
        k(   97) = (   0.1250000  -0.5000000   0.0000000), wk =   0.0039062
        k(   98) = (   0.1250000  -0.5000000   0.1250000), wk =   0.0039062
        k(   99) = (   0.1250000  -0.5000000   0.2500000), wk =   0.0039062
        k(  100) = (   0.1250000  -0.5000000   0.3750000), wk =   0.0039062
        k(  101) = (   0.1250000  -0.5000000  -0.5000000), wk =   0.0039062
        k(  102) = (   0.1250000  -0.5000000  -0.3750000), wk =   0.0039062
        k(  103) = (   0.1250000  -0.5000000  -0.2500000), wk =   0.0039062
        k(  104) = (   0.1250000  -0.5000000  -0.1250000), wk =   0.0039062
        k(  105) = (   0.1250000  -0.3750000  -0.0000000), wk =   0.0039062
        k(  106) = (   0.1250000  -0.3750000   0.1250000), wk =   0.0039062
        k(  107) = (   0.1250000  -0.3750000   0.2500000), wk =   0.0039062
        k(  108) = (   0.1250000  -0.3750000   0.3750000), wk =   0.0039062
        k(  109) = (   0.1250000  -0.3750000  -0.5000000), wk =   0.0039062
        k(  110) = (   0.1250000  -0.3750000  -0.3750000), wk =   0.0039062
        k(  111) = (   0.1250000  -0.3750000  -0.2500000), wk =   0.0039062
        k(  112) = (   0.1250000  -0.3750000  -0.1250000), wk =   0.0039062
        k(  113) = (   0.1250000  -0.2500000  -0.0000000), wk =   0.0039062
        k(  114) = (   0.1250000  -0.2500000   0.1250000), wk =   0.0039062
        k(  115) = (   0.1250000  -0.2500000   0.2500000), wk =   0.0039062
        k(  116) = (   0.1250000  -0.2500000   0.3750000), wk =   0.0039062
        k(  117) = (   0.1250000  -0.2500000  -0.5000000), wk =   0.0039062
        k(  118) = (   0.1250000  -0.2500000  -0.3750000), wk =   0.0039062
        k(  119) = (   0.1250000  -0.2500000  -0.2500000), wk =   0.0039062
        k(  120) = (   0.1250000  -0.2500000  -0.1250000), wk =   0.0039062
        k(  121) = (   0.1250000  -0.1250000  -0.0000000), wk =   0.0039062
        k(  122) = (   0.1250000  -0.1250000   0.1250000), wk =   0.0039062
        k(  123) = (   0.1250000  -0.1250000   0.2500000), wk =   0.0039062
        k(  124) = (   0.1250000  -0.1250000   0.3750000), wk =   0.0039062
        k(  125) = (   0.1250000  -0.1250000  -0.5000000), wk =   0.0039062
        k(  126) = (   0.1250000  -0.1250000  -0.3750000), wk =   0.0039062
        k(  127) = (   0.1250000  -0.1250000  -0.2500000), wk =   0.0039062
        k(  128) = (   0.1250000  -0.1250000  -0.1250000), wk =   0.0039062
        k(  129) = (   0.2500000  -0.0000000   0.0000000), wk =   0.0039062
        k(  130) = (   0.2500000   0.0000000   0.1250000), wk =   0.0039062
        k(  131) = (   0.2500000   0.0000000   0.2500000), wk =   0.0039062
        k(  132) = (   0.2500000  -0.0000000   0.3750000), wk =   0.0039062
        k(  133) = (   0.2500000   0.0000000  -0.5000000), wk =   0.0039062
        k(  134) = (   0.2500000  -0.0000000  -0.3750000), wk =   0.0039062
        k(  135) = (   0.2500000  -0.0000000  -0.2500000), wk =   0.0039062
        k(  136) = (   0.2500000  -0.0000000  -0.1250000), wk =   0.0039062
        k(  137) = (   0.2500000   0.1250000   0.0000000), wk =   0.0039062
        k(  138) = (   0.2500000   0.1250000   0.1250000), wk =   0.0039062
        k(  139) = (   0.2500000   0.1250000   0.2500000), wk =   0.0039062
        k(  140) = (   0.2500000   0.1250000   0.3750000), wk =   0.0039062
        k(  141) = (   0.2500000   0.1250000  -0.5000000), wk =   0.0039062
        k(  142) = (   0.2500000   0.1250000  -0.3750000), wk =   0.0039062
        k(  143) = (   0.2500000   0.1250000  -0.2500000), wk =   0.0039062
        k(  144) = (   0.2500000   0.1250000  -0.1250000), wk =   0.0039062
        k(  145) = (   0.2500000   0.2500000   0.0000000), wk =   0.0039062
        k(  146) = (   0.2500000   0.2500000   0.1250000), wk =   0.0039062
        k(  147) = (   0.2500000   0.2500000   0.2500000), wk =   0.0039062
        k(  148) = (   0.2500000   0.2500000   0.3750000), wk =   0.0039062
        k(  149) = (   0.2500000   0.2500000  -0.5000000), wk =   0.0039062
        k(  150) = (   0.2500000   0.2500000  -0.3750000), wk =   0.0039062
        k(  151) = (   0.2500000   0.2500000  -0.2500000), wk =   0.0039062
        k(  152) = (   0.2500000   0.2500000  -0.1250000), wk =   0.0039062
        k(  153) = (   0.2500000   0.3750000   0.0000000), wk =   0.0039062
        k(  154) = (   0.2500000   0.3750000   0.1250000), wk =   0.0039062
        k(  155) = (   0.2500000   0.3750000   0.2500000), wk =   0.0039062
        k(  156) = (   0.2500000   0.3750000   0.3750000), wk =   0.0039062
        k(  157) = (   0.2500000   0.3750000  -0.5000000), wk =   0.0039062
        k(  158) = (   0.2500000   0.3750000  -0.3750000), wk =   0.0039062
        k(  159) = (   0.2500000   0.3750000  -0.2500000), wk =   0.0039062
        k(  160) = (   0.2500000   0.3750000  -0.1250000), wk =   0.0039062
        k(  161) = (   0.2500000  -0.5000000  -0.0000000), wk =   0.0039062
        k(  162) = (   0.2500000  -0.5000000   0.1250000), wk =   0.0039062
        k(  163) = (   0.2500000  -0.5000000   0.2500000), wk =   0.0039062
        k(  164) = (   0.2500000  -0.5000000   0.3750000), wk =   0.0039062
        k(  165) = (   0.2500000  -0.5000000  -0.5000000), wk =   0.0039062
        k(  166) = (   0.2500000  -0.5000000  -0.3750000), wk =   0.0039062
        k(  167) = (   0.2500000  -0.5000000  -0.2500000), wk =   0.0039062
        k(  168) = (   0.2500000  -0.5000000  -0.1250000), wk =   0.0039062
        k(  169) = (   0.2500000  -0.3750000  -0.0000000), wk =   0.0039062
        k(  170) = (   0.2500000  -0.3750000   0.1250000), wk =   0.0039062
        k(  171) = (   0.2500000  -0.3750000   0.2500000), wk =   0.0039062
        k(  172) = (   0.2500000  -0.3750000   0.3750000), wk =   0.0039062
        k(  173) = (   0.2500000  -0.3750000  -0.5000000), wk =   0.0039062
        k(  174) = (   0.2500000  -0.3750000  -0.3750000), wk =   0.0039062
        k(  175) = (   0.2500000  -0.3750000  -0.2500000), wk =   0.0039062
        k(  176) = (   0.2500000  -0.3750000  -0.1250000), wk =   0.0039062
        k(  177) = (   0.2500000  -0.2500000  -0.0000000), wk =   0.0039062
        k(  178) = (   0.2500000  -0.2500000   0.1250000), wk =   0.0039062
        k(  179) = (   0.2500000  -0.2500000   0.2500000), wk =   0.0039062
        k(  180) = (   0.2500000  -0.2500000   0.3750000), wk =   0.0039062
        k(  181) = (   0.2500000  -0.2500000  -0.5000000), wk =   0.0039062
        k(  182) = (   0.2500000  -0.2500000  -0.3750000), wk =   0.0039062
        k(  183) = (   0.2500000  -0.2500000  -0.2500000), wk =   0.0039062
        k(  184) = (   0.2500000  -0.2500000  -0.1250000), wk =   0.0039062
        k(  185) = (   0.2500000  -0.1250000  -0.0000000), wk =   0.0039062
        k(  186) = (   0.2500000  -0.1250000   0.1250000), wk =   0.0039062
        k(  187) = (   0.2500000  -0.1250000   0.2500000), wk =   0.0039062
        k(  188) = (   0.2500000  -0.1250000   0.3750000), wk =   0.0039062
        k(  189) = (   0.2500000  -0.1250000  -0.5000000), wk =   0.0039062
        k(  190) = (   0.2500000  -0.1250000  -0.3750000), wk =   0.0039062
        k(  191) = (   0.2500000  -0.1250000  -0.2500000), wk =   0.0039062
        k(  192) = (   0.2500000  -0.1250000  -0.1250000), wk =   0.0039062
        k(  193) = (   0.3750000  -0.0000000   0.0000000), wk =   0.0039062
        k(  194) = (   0.3750000  -0.0000000   0.1250000), wk =   0.0039062
        k(  195) = (   0.3750000   0.0000000   0.2500000), wk =   0.0039062
        k(  196) = (   0.3750000  -0.0000000   0.3750000), wk =   0.0039062
        k(  197) = (   0.3750000   0.0000000  -0.5000000), wk =   0.0039062
        k(  198) = (   0.3750000  -0.0000000  -0.3750000), wk =   0.0039062
        k(  199) = (   0.3750000  -0.0000000  -0.2500000), wk =   0.0039062
        k(  200) = (   0.3750000  -0.0000000  -0.1250000), wk =   0.0039062
        k(  201) = (   0.3750000   0.1250000   0.0000000), wk =   0.0039062
        k(  202) = (   0.3750000   0.1250000   0.1250000), wk =   0.0039062
        k(  203) = (   0.3750000   0.1250000   0.2500000), wk =   0.0039062
        k(  204) = (   0.3750000   0.1250000   0.3750000), wk =   0.0039062
        k(  205) = (   0.3750000   0.1250000  -0.5000000), wk =   0.0039062
        k(  206) = (   0.3750000   0.1250000  -0.3750000), wk =   0.0039062
        k(  207) = (   0.3750000   0.1250000  -0.2500000), wk =   0.0039062
        k(  208) = (   0.3750000   0.1250000  -0.1250000), wk =   0.0039062
        k(  209) = (   0.3750000   0.2500000   0.0000000), wk =   0.0039062
        k(  210) = (   0.3750000   0.2500000   0.1250000), wk =   0.0039062
        k(  211) = (   0.3750000   0.2500000   0.2500000), wk =   0.0039062
        k(  212) = (   0.3750000   0.2500000   0.3750000), wk =   0.0039062
        k(  213) = (   0.3750000   0.2500000  -0.5000000), wk =   0.0039062
        k(  214) = (   0.3750000   0.2500000  -0.3750000), wk =   0.0039062
        k(  215) = (   0.3750000   0.2500000  -0.2500000), wk =   0.0039062
        k(  216) = (   0.3750000   0.2500000  -0.1250000), wk =   0.0039062
        k(  217) = (   0.3750000   0.3750000   0.0000000), wk =   0.0039062
        k(  218) = (   0.3750000   0.3750000   0.1250000), wk =   0.0039062
        k(  219) = (   0.3750000   0.3750000   0.2500000), wk =   0.0039062
        k(  220) = (   0.3750000   0.3750000   0.3750000), wk =   0.0039062
        k(  221) = (   0.3750000   0.3750000  -0.5000000), wk =   0.0039062
        k(  222) = (   0.3750000   0.3750000  -0.3750000), wk =   0.0039062
        k(  223) = (   0.3750000   0.3750000  -0.2500000), wk =   0.0039062
        k(  224) = (   0.3750000   0.3750000  -0.1250000), wk =   0.0039062
        k(  225) = (   0.3750000  -0.5000000   0.0000000), wk =   0.0039062
        k(  226) = (   0.3750000  -0.5000000   0.1250000), wk =   0.0039062
        k(  227) = (   0.3750000  -0.5000000   0.2500000), wk =   0.0039062
        k(  228) = (   0.3750000  -0.5000000   0.3750000), wk =   0.0039062
        k(  229) = (   0.3750000  -0.5000000  -0.5000000), wk =   0.0039062
        k(  230) = (   0.3750000  -0.5000000  -0.3750000), wk =   0.0039062
        k(  231) = (   0.3750000  -0.5000000  -0.2500000), wk =   0.0039062
        k(  232) = (   0.3750000  -0.5000000  -0.1250000), wk =   0.0039062
        k(  233) = (   0.3750000  -0.3750000  -0.0000000), wk =   0.0039062
        k(  234) = (   0.3750000  -0.3750000   0.1250000), wk =   0.0039062
        k(  235) = (   0.3750000  -0.3750000   0.2500000), wk =   0.0039062
        k(  236) = (   0.3750000  -0.3750000   0.3750000), wk =   0.0039062
        k(  237) = (   0.3750000  -0.3750000  -0.5000000), wk =   0.0039062
        k(  238) = (   0.3750000  -0.3750000  -0.3750000), wk =   0.0039062
        k(  239) = (   0.3750000  -0.3750000  -0.2500000), wk =   0.0039062
        k(  240) = (   0.3750000  -0.3750000  -0.1250000), wk =   0.0039062
        k(  241) = (   0.3750000  -0.2500000  -0.0000000), wk =   0.0039062
        k(  242) = (   0.3750000  -0.2500000   0.1250000), wk =   0.0039062
        k(  243) = (   0.3750000  -0.2500000   0.2500000), wk =   0.0039062
        k(  244) = (   0.3750000  -0.2500000   0.3750000), wk =   0.0039062
        k(  245) = (   0.3750000  -0.2500000  -0.5000000), wk =   0.0039062
        k(  246) = (   0.3750000  -0.2500000  -0.3750000), wk =   0.0039062
        k(  247) = (   0.3750000  -0.2500000  -0.2500000), wk =   0.0039062
        k(  248) = (   0.3750000  -0.2500000  -0.1250000), wk =   0.0039062
        k(  249) = (   0.3750000  -0.1250000   0.0000000), wk =   0.0039062
        k(  250) = (   0.3750000  -0.1250000   0.1250000), wk =   0.0039062
        k(  251) = (   0.3750000  -0.1250000   0.2500000), wk =   0.0039062
        k(  252) = (   0.3750000  -0.1250000   0.3750000), wk =   0.0039062
        k(  253) = (   0.3750000  -0.1250000  -0.5000000), wk =   0.0039062
        k(  254) = (   0.3750000  -0.1250000  -0.3750000), wk =   0.0039062
        k(  255) = (   0.3750000  -0.1250000  -0.2500000), wk =   0.0039062
        k(  256) = (   0.3750000  -0.1250000  -0.1250000), wk =   0.0039062
        k(  257) = (  -0.5000000   0.0000000   0.0000000), wk =   0.0039062
        k(  258) = (  -0.5000000   0.0000000   0.1250000), wk =   0.0039062
        k(  259) = (  -0.5000000   0.0000000   0.2500000), wk =   0.0039062
        k(  260) = (  -0.5000000   0.0000000   0.3750000), wk =   0.0039062
        k(  261) = (  -0.5000000  -0.0000000  -0.5000000), wk =   0.0039062
        k(  262) = (  -0.5000000  -0.0000000  -0.3750000), wk =   0.0039062
        k(  263) = (  -0.5000000  -0.0000000  -0.2500000), wk =   0.0039062
        k(  264) = (  -0.5000000  -0.0000000  -0.1250000), wk =   0.0039062
        k(  265) = (  -0.5000000   0.1250000   0.0000000), wk =   0.0039062
        k(  266) = (  -0.5000000   0.1250000   0.1250000), wk =   0.0039062
        k(  267) = (  -0.5000000   0.1250000   0.2500000), wk =   0.0039062
        k(  268) = (  -0.5000000   0.1250000   0.3750000), wk =   0.0039062
        k(  269) = (  -0.5000000   0.1250000  -0.5000000), wk =   0.0039062
        k(  270) = (  -0.5000000   0.1250000  -0.3750000), wk =   0.0039062
        k(  271) = (  -0.5000000   0.1250000  -0.2500000), wk =   0.0039062
        k(  272) = (  -0.5000000   0.1250000  -0.1250000), wk =   0.0039062
        k(  273) = (  -0.5000000   0.2500000   0.0000000), wk =   0.0039062
        k(  274) = (  -0.5000000   0.2500000   0.1250000), wk =   0.0039062
        k(  275) = (  -0.5000000   0.2500000   0.2500000), wk =   0.0039062
        k(  276) = (  -0.5000000   0.2500000   0.3750000), wk =   0.0039062
        k(  277) = (  -0.5000000   0.2500000  -0.5000000), wk =   0.0039062
        k(  278) = (  -0.5000000   0.2500000  -0.3750000), wk =   0.0039062
        k(  279) = (  -0.5000000   0.2500000  -0.2500000), wk =   0.0039062
        k(  280) = (  -0.5000000   0.2500000  -0.1250000), wk =   0.0039062
        k(  281) = (  -0.5000000   0.3750000   0.0000000), wk =   0.0039062
        k(  282) = (  -0.5000000   0.3750000   0.1250000), wk =   0.0039062
        k(  283) = (  -0.5000000   0.3750000   0.2500000), wk =   0.0039062
        k(  284) = (  -0.5000000   0.3750000   0.3750000), wk =   0.0039062
        k(  285) = (  -0.5000000   0.3750000  -0.5000000), wk =   0.0039062
        k(  286) = (  -0.5000000   0.3750000  -0.3750000), wk =   0.0039062
        k(  287) = (  -0.5000000   0.3750000  -0.2500000), wk =   0.0039062
        k(  288) = (  -0.5000000   0.3750000  -0.1250000), wk =   0.0039062
        k(  289) = (  -0.5000000  -0.5000000   0.0000000), wk =   0.0039062
        k(  290) = (  -0.5000000  -0.5000000   0.1250000), wk =   0.0039062
        k(  291) = (  -0.5000000  -0.5000000   0.2500000), wk =   0.0039062
        k(  292) = (  -0.5000000  -0.5000000   0.3750000), wk =   0.0039062
        k(  293) = (  -0.5000000  -0.5000000  -0.5000000), wk =   0.0039062
        k(  294) = (  -0.5000000  -0.5000000  -0.3750000), wk =   0.0039062
        k(  295) = (  -0.5000000  -0.5000000  -0.2500000), wk =   0.0039062
        k(  296) = (  -0.5000000  -0.5000000  -0.1250000), wk =   0.0039062
        k(  297) = (  -0.5000000  -0.3750000   0.0000000), wk =   0.0039062
        k(  298) = (  -0.5000000  -0.3750000   0.1250000), wk =   0.0039062
        k(  299) = (  -0.5000000  -0.3750000   0.2500000), wk =   0.0039062
        k(  300) = (  -0.5000000  -0.3750000   0.3750000), wk =   0.0039062
        k(  301) = (  -0.5000000  -0.3750000  -0.5000000), wk =   0.0039062
        k(  302) = (  -0.5000000  -0.3750000  -0.3750000), wk =   0.0039062
        k(  303) = (  -0.5000000  -0.3750000  -0.2500000), wk =   0.0039062
        k(  304) = (  -0.5000000  -0.3750000  -0.1250000), wk =   0.0039062
        k(  305) = (  -0.5000000  -0.2500000   0.0000000), wk =   0.0039062
        k(  306) = (  -0.5000000  -0.2500000   0.1250000), wk =   0.0039062
        k(  307) = (  -0.5000000  -0.2500000   0.2500000), wk =   0.0039062
        k(  308) = (  -0.5000000  -0.2500000   0.3750000), wk =   0.0039062
        k(  309) = (  -0.5000000  -0.2500000  -0.5000000), wk =   0.0039062
        k(  310) = (  -0.5000000  -0.2500000  -0.3750000), wk =   0.0039062
        k(  311) = (  -0.5000000  -0.2500000  -0.2500000), wk =   0.0039062
        k(  312) = (  -0.5000000  -0.2500000  -0.1250000), wk =   0.0039062
        k(  313) = (  -0.5000000  -0.1250000   0.0000000), wk =   0.0039062
        k(  314) = (  -0.5000000  -0.1250000   0.1250000), wk =   0.0039062
        k(  315) = (  -0.5000000  -0.1250000   0.2500000), wk =   0.0039062
        k(  316) = (  -0.5000000  -0.1250000   0.3750000), wk =   0.0039062
        k(  317) = (  -0.5000000  -0.1250000  -0.5000000), wk =   0.0039062
        k(  318) = (  -0.5000000  -0.1250000  -0.3750000), wk =   0.0039062
        k(  319) = (  -0.5000000  -0.1250000  -0.2500000), wk =   0.0039062
        k(  320) = (  -0.5000000  -0.1250000  -0.1250000), wk =   0.0039062
        k(  321) = (  -0.3750000   0.0000000   0.0000000), wk =   0.0039062
        k(  322) = (  -0.3750000   0.0000000   0.1250000), wk =   0.0039062
        k(  323) = (  -0.3750000   0.0000000   0.2500000), wk =   0.0039062
        k(  324) = (  -0.3750000   0.0000000   0.3750000), wk =   0.0039062
        k(  325) = (  -0.3750000   0.0000000  -0.5000000), wk =   0.0039062
        k(  326) = (  -0.3750000   0.0000000  -0.3750000), wk =   0.0039062
        k(  327) = (  -0.3750000  -0.0000000  -0.2500000), wk =   0.0039062
        k(  328) = (  -0.3750000   0.0000000  -0.1250000), wk =   0.0039062
        k(  329) = (  -0.3750000   0.1250000   0.0000000), wk =   0.0039062
        k(  330) = (  -0.3750000   0.1250000   0.1250000), wk =   0.0039062
        k(  331) = (  -0.3750000   0.1250000   0.2500000), wk =   0.0039062
        k(  332) = (  -0.3750000   0.1250000   0.3750000), wk =   0.0039062
        k(  333) = (  -0.3750000   0.1250000  -0.5000000), wk =   0.0039062
        k(  334) = (  -0.3750000   0.1250000  -0.3750000), wk =   0.0039062
        k(  335) = (  -0.3750000   0.1250000  -0.2500000), wk =   0.0039062
        k(  336) = (  -0.3750000   0.1250000  -0.1250000), wk =   0.0039062
        k(  337) = (  -0.3750000   0.2500000   0.0000000), wk =   0.0039062
        k(  338) = (  -0.3750000   0.2500000   0.1250000), wk =   0.0039062
        k(  339) = (  -0.3750000   0.2500000   0.2500000), wk =   0.0039062
        k(  340) = (  -0.3750000   0.2500000   0.3750000), wk =   0.0039062
        k(  341) = (  -0.3750000   0.2500000  -0.5000000), wk =   0.0039062
        k(  342) = (  -0.3750000   0.2500000  -0.3750000), wk =   0.0039062
        k(  343) = (  -0.3750000   0.2500000  -0.2500000), wk =   0.0039062
        k(  344) = (  -0.3750000   0.2500000  -0.1250000), wk =   0.0039062
        k(  345) = (  -0.3750000   0.3750000   0.0000000), wk =   0.0039062
        k(  346) = (  -0.3750000   0.3750000   0.1250000), wk =   0.0039062
        k(  347) = (  -0.3750000   0.3750000   0.2500000), wk =   0.0039062
        k(  348) = (  -0.3750000   0.3750000   0.3750000), wk =   0.0039062
        k(  349) = (  -0.3750000   0.3750000  -0.5000000), wk =   0.0039062
        k(  350) = (  -0.3750000   0.3750000  -0.3750000), wk =   0.0039062
        k(  351) = (  -0.3750000   0.3750000  -0.2500000), wk =   0.0039062
        k(  352) = (  -0.3750000   0.3750000  -0.1250000), wk =   0.0039062
        k(  353) = (  -0.3750000  -0.5000000  -0.0000000), wk =   0.0039062
        k(  354) = (  -0.3750000  -0.5000000   0.1250000), wk =   0.0039062
        k(  355) = (  -0.3750000  -0.5000000   0.2500000), wk =   0.0039062
        k(  356) = (  -0.3750000  -0.5000000   0.3750000), wk =   0.0039062
        k(  357) = (  -0.3750000  -0.5000000  -0.5000000), wk =   0.0039062
        k(  358) = (  -0.3750000  -0.5000000  -0.3750000), wk =   0.0039062
        k(  359) = (  -0.3750000  -0.5000000  -0.2500000), wk =   0.0039062
        k(  360) = (  -0.3750000  -0.5000000  -0.1250000), wk =   0.0039062
        k(  361) = (  -0.3750000  -0.3750000  -0.0000000), wk =   0.0039062
        k(  362) = (  -0.3750000  -0.3750000   0.1250000), wk =   0.0039062
        k(  363) = (  -0.3750000  -0.3750000   0.2500000), wk =   0.0039062
        k(  364) = (  -0.3750000  -0.3750000   0.3750000), wk =   0.0039062
        k(  365) = (  -0.3750000  -0.3750000  -0.5000000), wk =   0.0039062
        k(  366) = (  -0.3750000  -0.3750000  -0.3750000), wk =   0.0039062
        k(  367) = (  -0.3750000  -0.3750000  -0.2500000), wk =   0.0039062
        k(  368) = (  -0.3750000  -0.3750000  -0.1250000), wk =   0.0039062
        k(  369) = (  -0.3750000  -0.2500000   0.0000000), wk =   0.0039062
        k(  370) = (  -0.3750000  -0.2500000   0.1250000), wk =   0.0039062
        k(  371) = (  -0.3750000  -0.2500000   0.2500000), wk =   0.0039062
        k(  372) = (  -0.3750000  -0.2500000   0.3750000), wk =   0.0039062
        k(  373) = (  -0.3750000  -0.2500000  -0.5000000), wk =   0.0039062
        k(  374) = (  -0.3750000  -0.2500000  -0.3750000), wk =   0.0039062
        k(  375) = (  -0.3750000  -0.2500000  -0.2500000), wk =   0.0039062
        k(  376) = (  -0.3750000  -0.2500000  -0.1250000), wk =   0.0039062
        k(  377) = (  -0.3750000  -0.1250000   0.0000000), wk =   0.0039062
        k(  378) = (  -0.3750000  -0.1250000   0.1250000), wk =   0.0039062
        k(  379) = (  -0.3750000  -0.1250000   0.2500000), wk =   0.0039062
        k(  380) = (  -0.3750000  -0.1250000   0.3750000), wk =   0.0039062
        k(  381) = (  -0.3750000  -0.1250000  -0.5000000), wk =   0.0039062
        k(  382) = (  -0.3750000  -0.1250000  -0.3750000), wk =   0.0039062
        k(  383) = (  -0.3750000  -0.1250000  -0.2500000), wk =   0.0039062
        k(  384) = (  -0.3750000  -0.1250000  -0.1250000), wk =   0.0039062
        k(  385) = (  -0.2500000   0.0000000   0.0000000), wk =   0.0039062
        k(  386) = (  -0.2500000   0.0000000   0.1250000), wk =   0.0039062
        k(  387) = (  -0.2500000   0.0000000   0.2500000), wk =   0.0039062
        k(  388) = (  -0.2500000   0.0000000   0.3750000), wk =   0.0039062
        k(  389) = (  -0.2500000   0.0000000  -0.5000000), wk =   0.0039062
        k(  390) = (  -0.2500000   0.0000000  -0.3750000), wk =   0.0039062
        k(  391) = (  -0.2500000  -0.0000000  -0.2500000), wk =   0.0039062
        k(  392) = (  -0.2500000  -0.0000000  -0.1250000), wk =   0.0039062
        k(  393) = (  -0.2500000   0.1250000   0.0000000), wk =   0.0039062
        k(  394) = (  -0.2500000   0.1250000   0.1250000), wk =   0.0039062
        k(  395) = (  -0.2500000   0.1250000   0.2500000), wk =   0.0039062
        k(  396) = (  -0.2500000   0.1250000   0.3750000), wk =   0.0039062
        k(  397) = (  -0.2500000   0.1250000  -0.5000000), wk =   0.0039062
        k(  398) = (  -0.2500000   0.1250000  -0.3750000), wk =   0.0039062
        k(  399) = (  -0.2500000   0.1250000  -0.2500000), wk =   0.0039062
        k(  400) = (  -0.2500000   0.1250000  -0.1250000), wk =   0.0039062
        k(  401) = (  -0.2500000   0.2500000   0.0000000), wk =   0.0039062
        k(  402) = (  -0.2500000   0.2500000   0.1250000), wk =   0.0039062
        k(  403) = (  -0.2500000   0.2500000   0.2500000), wk =   0.0039062
        k(  404) = (  -0.2500000   0.2500000   0.3750000), wk =   0.0039062
        k(  405) = (  -0.2500000   0.2500000  -0.5000000), wk =   0.0039062
        k(  406) = (  -0.2500000   0.2500000  -0.3750000), wk =   0.0039062
        k(  407) = (  -0.2500000   0.2500000  -0.2500000), wk =   0.0039062
        k(  408) = (  -0.2500000   0.2500000  -0.1250000), wk =   0.0039062
        k(  409) = (  -0.2500000   0.3750000   0.0000000), wk =   0.0039062
        k(  410) = (  -0.2500000   0.3750000   0.1250000), wk =   0.0039062
        k(  411) = (  -0.2500000   0.3750000   0.2500000), wk =   0.0039062
        k(  412) = (  -0.2500000   0.3750000   0.3750000), wk =   0.0039062
        k(  413) = (  -0.2500000   0.3750000  -0.5000000), wk =   0.0039062
        k(  414) = (  -0.2500000   0.3750000  -0.3750000), wk =   0.0039062
        k(  415) = (  -0.2500000   0.3750000  -0.2500000), wk =   0.0039062
        k(  416) = (  -0.2500000   0.3750000  -0.1250000), wk =   0.0039062
        k(  417) = (  -0.2500000  -0.5000000   0.0000000), wk =   0.0039062
        k(  418) = (  -0.2500000  -0.5000000   0.1250000), wk =   0.0039062
        k(  419) = (  -0.2500000  -0.5000000   0.2500000), wk =   0.0039062
        k(  420) = (  -0.2500000  -0.5000000   0.3750000), wk =   0.0039062
        k(  421) = (  -0.2500000  -0.5000000  -0.5000000), wk =   0.0039062
        k(  422) = (  -0.2500000  -0.5000000  -0.3750000), wk =   0.0039062
        k(  423) = (  -0.2500000  -0.5000000  -0.2500000), wk =   0.0039062
        k(  424) = (  -0.2500000  -0.5000000  -0.1250000), wk =   0.0039062
        k(  425) = (  -0.2500000  -0.3750000   0.0000000), wk =   0.0039062
        k(  426) = (  -0.2500000  -0.3750000   0.1250000), wk =   0.0039062
        k(  427) = (  -0.2500000  -0.3750000   0.2500000), wk =   0.0039062
        k(  428) = (  -0.2500000  -0.3750000   0.3750000), wk =   0.0039062
        k(  429) = (  -0.2500000  -0.3750000  -0.5000000), wk =   0.0039062
        k(  430) = (  -0.2500000  -0.3750000  -0.3750000), wk =   0.0039062
        k(  431) = (  -0.2500000  -0.3750000  -0.2500000), wk =   0.0039062
        k(  432) = (  -0.2500000  -0.3750000  -0.1250000), wk =   0.0039062
        k(  433) = (  -0.2500000  -0.2500000   0.0000000), wk =   0.0039062
        k(  434) = (  -0.2500000  -0.2500000   0.1250000), wk =   0.0039062
        k(  435) = (  -0.2500000  -0.2500000   0.2500000), wk =   0.0039062
        k(  436) = (  -0.2500000  -0.2500000   0.3750000), wk =   0.0039062
        k(  437) = (  -0.2500000  -0.2500000  -0.5000000), wk =   0.0039062
        k(  438) = (  -0.2500000  -0.2500000  -0.3750000), wk =   0.0039062
        k(  439) = (  -0.2500000  -0.2500000  -0.2500000), wk =   0.0039062
        k(  440) = (  -0.2500000  -0.2500000  -0.1250000), wk =   0.0039062
        k(  441) = (  -0.2500000  -0.1250000   0.0000000), wk =   0.0039062
        k(  442) = (  -0.2500000  -0.1250000   0.1250000), wk =   0.0039062
        k(  443) = (  -0.2500000  -0.1250000   0.2500000), wk =   0.0039062
        k(  444) = (  -0.2500000  -0.1250000   0.3750000), wk =   0.0039062
        k(  445) = (  -0.2500000  -0.1250000  -0.5000000), wk =   0.0039062
        k(  446) = (  -0.2500000  -0.1250000  -0.3750000), wk =   0.0039062
        k(  447) = (  -0.2500000  -0.1250000  -0.2500000), wk =   0.0039062
        k(  448) = (  -0.2500000  -0.1250000  -0.1250000), wk =   0.0039062
        k(  449) = (  -0.1250000   0.0000000   0.0000000), wk =   0.0039062
        k(  450) = (  -0.1250000   0.0000000   0.1250000), wk =   0.0039062
        k(  451) = (  -0.1250000   0.0000000   0.2500000), wk =   0.0039062
        k(  452) = (  -0.1250000   0.0000000   0.3750000), wk =   0.0039062
        k(  453) = (  -0.1250000   0.0000000  -0.5000000), wk =   0.0039062
        k(  454) = (  -0.1250000  -0.0000000  -0.3750000), wk =   0.0039062
        k(  455) = (  -0.1250000   0.0000000  -0.2500000), wk =   0.0039062
        k(  456) = (  -0.1250000  -0.0000000  -0.1250000), wk =   0.0039062
        k(  457) = (  -0.1250000   0.1250000   0.0000000), wk =   0.0039062
        k(  458) = (  -0.1250000   0.1250000   0.1250000), wk =   0.0039062
        k(  459) = (  -0.1250000   0.1250000   0.2500000), wk =   0.0039062
        k(  460) = (  -0.1250000   0.1250000   0.3750000), wk =   0.0039062
        k(  461) = (  -0.1250000   0.1250000  -0.5000000), wk =   0.0039062
        k(  462) = (  -0.1250000   0.1250000  -0.3750000), wk =   0.0039062
        k(  463) = (  -0.1250000   0.1250000  -0.2500000), wk =   0.0039062
        k(  464) = (  -0.1250000   0.1250000  -0.1250000), wk =   0.0039062
        k(  465) = (  -0.1250000   0.2500000   0.0000000), wk =   0.0039062
        k(  466) = (  -0.1250000   0.2500000   0.1250000), wk =   0.0039062
        k(  467) = (  -0.1250000   0.2500000   0.2500000), wk =   0.0039062
        k(  468) = (  -0.1250000   0.2500000   0.3750000), wk =   0.0039062
        k(  469) = (  -0.1250000   0.2500000  -0.5000000), wk =   0.0039062
        k(  470) = (  -0.1250000   0.2500000  -0.3750000), wk =   0.0039062
        k(  471) = (  -0.1250000   0.2500000  -0.2500000), wk =   0.0039062
        k(  472) = (  -0.1250000   0.2500000  -0.1250000), wk =   0.0039062
        k(  473) = (  -0.1250000   0.3750000   0.0000000), wk =   0.0039062
        k(  474) = (  -0.1250000   0.3750000   0.1250000), wk =   0.0039062
        k(  475) = (  -0.1250000   0.3750000   0.2500000), wk =   0.0039062
        k(  476) = (  -0.1250000   0.3750000   0.3750000), wk =   0.0039062
        k(  477) = (  -0.1250000   0.3750000  -0.5000000), wk =   0.0039062
        k(  478) = (  -0.1250000   0.3750000  -0.3750000), wk =   0.0039062
        k(  479) = (  -0.1250000   0.3750000  -0.2500000), wk =   0.0039062
        k(  480) = (  -0.1250000   0.3750000  -0.1250000), wk =   0.0039062
        k(  481) = (  -0.1250000  -0.5000000   0.0000000), wk =   0.0039062
        k(  482) = (  -0.1250000  -0.5000000   0.1250000), wk =   0.0039062
        k(  483) = (  -0.1250000  -0.5000000   0.2500000), wk =   0.0039062
        k(  484) = (  -0.1250000  -0.5000000   0.3750000), wk =   0.0039062
        k(  485) = (  -0.1250000  -0.5000000  -0.5000000), wk =   0.0039062
        k(  486) = (  -0.1250000  -0.5000000  -0.3750000), wk =   0.0039062
        k(  487) = (  -0.1250000  -0.5000000  -0.2500000), wk =   0.0039062
[...]

    -2.2571  -0.6930   9.2325  13.5595  17.8899  18.4374  19.7269  20.5666

     occupation numbers 
     1.0000   1.0000   1.0000   0.0000   0.0000   0.0000   0.0000   0.0000

          k =-0.1395 0.0599-0.1441 (   797 PWs)   bands (ev):

    -2.7859   0.4122   7.1751  15.9396  17.5814  18.1806  20.5881  21.3040

     occupation numbers 
     1.0000   1.0000   1.0000   0.0000   0.0000   0.0000   0.0000   0.0000

          k =-0.1346 0.0666-0.0728 (   787 PWs)   bands (ev):

    -3.1080   1.6795   5.3251  17.1801  18.0215  18.5924  21.0693  21.6817

     occupation numbers 
     1.0000   1.0000   1.0000   0.0000   0.0000   0.0000   0.0000   0.0000

          k =-0.1382 0.2215-0.0056 (   793 PWs)   bands (ev):

    -2.2878   3.6450   4.9571  14.3291  14.8620  18.6638  19.3016  20.6260

     occupation numbers 
     1.0000   1.0000   1.0000   0.0000   0.0000   0.0000   0.0000   0.0000

          k =-0.1333 0.2282 0.0657 (   795 PWs)   bands (ev):

    -2.1679   2.5562   6.2595  14.3252  14.9396  18.4068  18.8588  19.6673

     occupation numbers 
     1.0000   1.0000   1.0000   0.0000   0.0000   0.0000   0.0000   0.0000

          k =-0.1284 0.2349 0.1369 (   797 PWs)   bands (ev):

    -1.8412   1.2984   8.0983  14.4534  15.1231  17.0386  17.4586  18.7524

     occupation numbers 
     1.0000   1.0000   1.0000   0.0000   0.0000   0.0000   0.0000   0.0000

          k =-0.1235 0.2415 0.2082 (   798 PWs)   bands (ev):

    -1.3089   0.2033  10.1295  14.0440  14.9107  16.1347  16.5561  17.7861

     occupation numbers 
     1.0000   1.0000   1.0000   0.0000   0.0000   0.0000   0.0000   0.0000

          k =-0.1578 0.1949-0.2906 (   801 PWs)   bands (ev):

    -0.7011  -0.5732  11.9476  12.2941  15.2993  15.8614  16.6320  16.9565

     occupation numbers 
     1.0000   1.0000   0.0000   0.0000   0.0000   0.0000   0.0000   0.0000

          k =-0.1529 0.2015-0.2194 (   798 PWs)   bands (ev):

    -1.4050   0.3608   9.8063  14.3580  15.2267  16.0629  16.3501  17.5137

     occupation numbers 
     1.0000   1.0000   1.0000   0.0000   0.0000   0.0000   0.0000   0.0000

          k =-0.1480 0.2082-0.1481 (   796 PWs)   bands (ev):

    -1.9055   1.4842   7.8003  14.6970  15.2266  16.7775  17.5166  18.4757

     occupation numbers 
     1.0000   1.0000   1.0000   0.0000   0.0000   0.0000   0.0000   0.0000

          k =-0.1431 0.2149-0.0769 (   797 PWs)   bands (ev):

    -2.2002   2.7589   6.0001  14.4582  14.9773  17.7339  19.2402  19.6804

     occupation numbers 
     1.0000   1.0000   1.0000   0.0000   0.0000   0.0000   0.0000   0.0000

          k =-0.1467 0.3698-0.0097 (   795 PWs)   bands (ev):

    -0.4686   5.3250   6.7520   9.6860  12.8128  14.3945  17.0254  17.7379

     occupation numbers 
     1.0000   1.0000   1.0000   1.0000   0.0000   0.0000   0.0000   0.0000

          k =-0.1418 0.3764 0.0616 (   795 PWs)   bands (ev):

    -0.3238   4.1583   8.1163   9.6832  13.0098  14.9878  16.0727  17.0610

     occupation numbers 
     1.0000   1.0000   1.0000   1.0000   0.0000   0.0000   0.0000   0.0000

          k =-0.1369 0.3831 0.1328 (   797 PWs)   bands (ev):

     0.0261   2.9326   9.4342  10.3131  13.3478  14.0438  15.5396  17.2083

     occupation numbers 
     1.0000   1.0000   1.0000   1.0000   0.0000   0.0000   0.0000   0.0000

          k =-0.1320 0.3898 0.2041 (   790 PWs)   bands (ev):

     0.5796   1.8721   9.9370  11.9386  13.0083  13.8759  14.7802  15.8851

     occupation numbers 
     1.0000   1.0000   1.0000   0.0000   0.0000   0.0000   0.0000   0.0000

          k =-0.1663 0.3431-0.2947 (   794 PWs)   bands (ev):

     1.0014   1.3333  10.4486  11.7336  13.2520  13.6540  14.8726  15.0631

     occupation numbers 
     1.0000   1.0000   1.0000   0.0000   0.0000   0.0000   0.0000   0.0000

          k =-0.1614 0.3498-0.2235 (   797 PWs)   bands (ev):

     0.3287   2.2821  10.7149  10.9931  11.7422  13.3362  15.7691  16.8647

     occupation numbers 
     1.0000   1.0000   1.0000   0.9880   0.0000   0.0000   0.0000   0.0000

          k =-0.1565 0.3564-0.1522 (   804 PWs)   bands (ev):

    -0.1417   3.4138   9.1998  10.3618  12.2105  13.0211  16.7664  18.7261

     occupation numbers 
     1.0000   1.0000   1.0000   1.0000   0.0000   0.0000   0.0000   0.0000

          k =-0.1516 0.3631-0.0809 (   799 PWs)   bands (ev):

    -0.4079   4.6781   7.5097   9.9224  12.7629  13.3102  17.6892  18.3929

     occupation numbers 
     1.0000   1.0000   1.0000   1.0000   0.0000   0.0000   0.0000   0.0000

          k =-0.0872-0.6680 0.0188 (   807 PWs)   bands (ev):

     2.2071   5.3547   7.8186   9.4257  10.5924  11.7320  13.1816  16.5195

     occupation numbers 
     1.0000   1.0000   1.0000   1.0000   1.0000   0.0000   0.0000   0.0000

          k =-0.0823-0.6613 0.0901 (   807 PWs)   bands (ev):

     2.3743   5.3189   6.6277  10.5812  11.2789  11.9181  12.7535  15.5592

     occupation numbers 
     1.0000   1.0000   1.0000   1.0000   0.0012   0.0000   0.0000   0.0000

          k =-0.0774-0.6546 0.1613 (   806 PWs)   bands (ev):

     2.7424   5.2769   5.6556   9.6960  12.3431  12.8705  13.7177  14.9299

     occupation numbers 
     1.0000   1.0000   1.0000   1.0000   0.0000   0.0000   0.0000   0.0000

          k =-0.0725-0.6480 0.2326 (   808 PWs)   bands (ev):

     3.3078   4.3758   5.9000   8.5678  12.9590  13.2535  14.9678  15.8842

     occupation numbers 
     1.0000   1.0000   1.0000   1.0000   0.0000   0.0000   0.0000   0.0000

          k =-0.1067-0.6946-0.2662 (   807 PWs)   bands (ev):

     3.5526   4.0624   6.4456   7.5875  12.6479  13.6519  15.5933  17.0131

     occupation numbers 
     1.0000   1.0000   1.0000   1.0000   0.0000   0.0000   0.0000   0.0000

          k =-0.1018-0.6879-0.1950 (   808 PWs)   bands (ev):

     2.9173   4.9749   6.8152   7.1880  12.1238  13.4101  14.9591  18.1060

     occupation numbers 
     1.0000   1.0000   1.0000   1.0000   0.0000   0.0000   0.0000   0.0000

          k =-0.0970-0.6813-0.1237 (   806 PWs)   bands (ev):

     2.4793   5.7230   6.5798   8.0932  11.4700  12.0355  15.7007  16.7651

     occupation numbers 
     1.0000   1.0000   1.0000   1.0000   0.0000   0.0000   0.0000   0.0000

          k =-0.0921-0.6746-0.0525 (   801 PWs)   bands (ev):

     2.2422   5.5545   7.5644   9.0080  10.1643  11.7404  14.6906  16.8513

     occupation numbers 
     1.0000   1.0000   1.0000   1.0000   1.0000   0.0000   0.0000   0.0000

          k =-0.0957-0.5197 0.0147 (   804 PWs)   bands (ev):

     1.9435   5.6799   7.3358   9.4336  10.9517  11.7389  13.1607  16.1784

     occupation numbers 
     1.0000   1.0000   1.0000   1.0000   0.9976   0.0000   0.0000   0.0000

          k =-0.0908-0.5130 0.0860 (   807 PWs)   bands (ev):

     1.9327   5.8307   7.5804   9.0263  10.1484  11.8237  14.2929  15.5013

     occupation numbers 
     1.0000   1.0000   1.0000   1.0000   1.0000   0.0000   0.0000   0.0000

          k =-0.0859-0.5064 0.1573 (   810 PWs)   bands (ev):

     2.1246   5.8507   6.7026   8.6283  10.9857  12.2474  13.9065  16.6726

     occupation numbers 
     1.0000   1.0000   1.0000   1.0000   0.9910   0.0000   0.0000   0.0000

          k =-0.0810-0.4997 0.2285 (   805 PWs)   bands (ev):

     2.5185   4.9513   7.0051   7.7205  12.4599  12.8684  13.4104  18.2335

     occupation numbers 
     1.0000   1.0000   1.0000   1.0000   0.0000   0.0000   0.0000   0.0000

          k =-0.1152-0.5464-0.2703 (   809 PWs)   bands (ev):

     3.1118   3.9858   6.9471   7.7378  12.2969  13.5638  14.8737  17.3211

     occupation numbers 
     1.0000   1.0000   1.0000   1.0000   0.0000   0.0000   0.0000   0.0000

          k =-0.1103-0.5397-0.1990 (   812 PWs)   bands (ev):

     3.1837   3.8999   6.3564   8.6739  11.8297  14.3249  15.3219  16.1884

     occupation numbers 
     1.0000   1.0000   1.0000   1.0000   0.0000   0.0000   0.0000   0.0000

          k =-0.1055-0.5330-0.1278 (   809 PWs)   bands (ev):

     2.5715   4.8655   5.9684   9.7560  11.4981  13.1761  14.4999  16.0675

     occupation numbers 
     1.0000   1.0000   1.0000   1.0000   0.0000   0.0000   0.0000   0.0000

          k =-0.1006-0.5264-0.0565 (   811 PWs)   bands (ev):

     2.1569   5.6416   6.1375  10.6600  11.0549  11.9109  13.2187  16.6577

     occupation numbers 
     1.0000   1.0000   1.0000   1.0000   0.8812   0.0000   0.0000   0.0000

          k =-0.1042-0.3715 0.0107 (   808 PWs)   bands (ev):

    -0.6598   4.9336   6.7775  10.0884  12.0536  15.0556  16.2152  17.5921

     occupation numbers 
     1.0000   1.0000   1.0000   1.0000   0.0000   0.0000   0.0000   0.0000

          k =-0.0993-0.3648 0.0819 (   805 PWs)   bands (ev):

    -0.6459   4.7691   6.9740  10.2847  12.3093  13.9737  15.3316  18.8752

     occupation numbers 
     1.0000   1.0000   1.0000   1.0000   0.0000   0.0000   0.0000   0.0000

          k =-0.0944-0.3581 0.1532 (   801 PWs)   bands (ev):

    -0.4259   3.4951   8.6160  10.6761  12.5619  13.1299  14.3998  19.2463

     occupation numbers 
     1.0000   1.0000   1.0000   1.0000   0.0000   0.0000   0.0000   0.0000

          k =-0.0895-0.3515 0.2244 (   803 PWs)   bands (ev):

    -0.0010   2.3221  10.4047  11.2479  11.9918  13.4928  13.6218  17.2576

     occupation numbers 
     1.0000   1.0000   1.0000   0.0040   0.0000   0.0000   0.0000   0.0000

          k =-0.1237-0.3981-0.2744 (   805 PWs)   bands (ev):

     0.6270   1.3284  10.9605  11.9530  12.4024  13.3473  14.0668  15.2584

     occupation numbers 
     1.0000   1.0000   0.9966   0.0000   0.0000   0.0000   0.0000   0.0000

          k =-0.1189-0.3915-0.2031 (   806 PWs)   bands (ev):

     0.5281   1.4548  10.4575  12.1261  12.3006  13.4271  14.9643  15.5126

     occupation numbers 
     1.0000   1.0000   1.0000   0.0000   0.0000   0.0000   0.0000   0.0000

          k =-0.1140-0.3848-0.1319 (   799 PWs)   bands (ev):

    -0.0717   2.4756   9.8494  10.6193  12.0572  14.2433  16.3113  16.8834

     occupation numbers 
     1.0000   1.0000   1.0000   1.0000   0.0000   0.0000   0.0000   0.0000

          k =-0.1091-0.3781-0.0606 (   809 PWs)   bands (ev):

    -0.4682   3.6723   8.3299  10.1109  11.9665  15.2631  16.6869  17.1832

     occupation numbers 
     1.0000   1.0000   1.0000   1.0000   0.0000   0.0000   0.0000   0.0000

          k =-0.1127-0.2232 0.0066 (   800 PWs)   bands (ev):

    -2.4036   3.3827   4.9948  13.4547  15.0190  17.4800  19.2166  20.6005

     occupation numbers 
     1.0000   1.0000   1.0000   0.0000   0.0000   0.0000   0.0000   0.0000

          k =-0.1078-0.2165 0.0779 (   793 PWs)   bands (ev):

    -2.3630   2.9331   5.5168  13.7501  15.2286  16.5147  18.4656  20.1724

     occupation numbers 
     1.0000   1.0000   1.0000   0.0000   0.0000   0.0000   0.0000   0.0000

          k =-0.1029-0.2099 0.1491 (   796 PWs)   bands (ev):

    -2.1152   1.6416   7.2506  14.2103  15.4551  15.6931  17.4461  18.0973

     occupation numbers 
     1.0000   1.0000   1.0000   0.0000   0.0000   0.0000   0.0000   0.0000

          k =-0.0980-0.2032 0.2204 (   794 PWs)   bands (ev):

    -1.6609   0.4770   9.2169  14.5571  14.7660  15.3400  16.5120  16.9131

     occupation numbers 
     1.0000   1.0000   1.0000   0.0000   0.0000   0.0000   0.0000   0.0000

          k =-0.1322-0.2499-0.2784 (   796 PWs)   bands (ev):

    -1.0023  -0.5020  11.3259  12.6979  14.2068  15.6859  16.2800  17.1570

     occupation numbers 
     1.0000   1.0000   0.0002   0.0000   0.0000   0.0000   0.0000   0.0000

          k =-0.1274-0.2432-0.2072 (   802 PWs)   bands (ev):

    -1.2838  -0.1422  10.5045  13.2786  14.0069  15.6241  16.8762  18.0094

     occupation numbers 
     1.0000   1.0000   1.0000   0.0000   0.0000   0.0000   0.0000   0.0000

          k =-0.1225-0.2365-0.1359 (   810 PWs)   bands (ev):

    -1.8630   0.9118   8.4305  13.3886  14.9621  16.3030  17.8816  18.9584

     occupation numbers 
     1.0000   1.0000   1.0000   0.0000   0.0000   0.0000   0.0000   0.0000

          k =-0.1176-0.2299-0.0647 (   803 PWs)   bands (ev):

    -2.2367   2.1402   6.5361  13.3371  14.9600  17.9345  18.6488  19.8563

     occupation numbers 
     1.0000   1.0000   1.0000   0.0000   0.0000   0.0000   0.0000   0.0000

     the Fermi energy is    11.1064 ev

!    total energy              =     -15.78115406 Ry
     estimated scf accuracy    <       0.00810157 Ry
     smearing contrib. (-TS)   =      -0.00011437 Ry
     internal energy E=F+TS    =     -15.78103968 Ry

     The total energy is F=E-TS. E is the sum of the following terms:
     one-electron contribution =       9.39461611 Ry
     hartree contribution      =       0.07286884 Ry
     xc contribution           =      -4.94959566 Ry
     ewald contribution        =     -20.29892899 Ry

     convergence has been achieved in   1 iterations

     Forces acting on atoms (cartesian axes, Ry/au):

     atom    1 type  1   force =     0.00017407   -0.00053250    0.00000057
     atom    2 type  1   force =    -0.00017407    0.00053250   -0.00000057
     The non-local contrib.  to forces
     atom    1 type  1   force =     0.00161813   -0.00369835   -0.00091135
     atom    2 type  1   force =    -0.00161855    0.00370436    0.00092252
     The ionic contribution  to forces
     atom    1 type  1   force =    -0.00895891   -0.00760574   -0.00634091
     atom    2 type  1   force =     0.00895891    0.00760574    0.00634091
     The local contribution  to forces
     atom    1 type  1   force =     0.00810684    0.01127290    0.00831381
     atom    2 type  1   force =    -0.00810573   -0.01127958   -0.00832450
     The core correction contribution to forces
     atom    1 type  1   force =     0.00000000    0.00000000    0.00000000
     atom    2 type  1   force =     0.00000000    0.00000000    0.00000000
     The Hubbard contrib.    to forces
     atom    1 type  1   force =     0.00000000    0.00000000    0.00000000
     atom    2 type  1   force =     0.00000000    0.00000000    0.00000000
     The SCF correction term to forces
     atom    1 type  1   force =    -0.00059169   -0.00050155   -0.00106059
     atom    2 type  1   force =     0.00059160    0.00050173    0.00106088

     Total force =     0.000792     Total SCF correction =     0.001858
     SCF correction compared to forces is large: reduce conv_thr to get better values


     Computing stress (Cartesian axis) and pressure

          total   stress  (Ry/bohr**3)                   (kbar)     P=       -1.75
  -0.00020953  -0.00026253   0.00009724          -30.82      -38.62       14.30
  -0.00026253   0.00000167   0.00008332          -38.62        0.25       12.26
   0.00009724   0.00008332   0.00017215           14.30       12.26       25.32

     kinetic stress (kbar)   3312.70    -25.20     13.00
                              -25.20   3335.88     12.22
                               13.00     12.22   3406.33

     local   stress (kbar)   -935.44    179.85    -62.94
                              179.85  -1097.70    -26.15
                              -62.94    -26.15   -358.05

     nonloc. stress (kbar)   3909.86    -33.75     18.30
                              -33.75   3943.49     12.74
                               18.30     12.74   3843.54

     hartree stress (kbar)     29.06     -6.18      0.00
                               -6.18     34.17     -2.01
                                0.00     -2.01     -6.19

     exc-cor stress (kbar)  -1177.89      0.00      0.00
                                0.00  -1177.89      0.00
                                0.00      0.00  -1177.89

     corecor stress (kbar)      0.00      0.00      0.00
                                0.00      0.00      0.00
                                0.00      0.00      0.00

     ewald   stress (kbar)  -5169.12   -153.34     45.95
                             -153.34  -5037.71     15.46
                               45.95     15.46  -5682.41

     hubbard stress (kbar)      0.00      0.00      0.00
                                0.00      0.00      0.00
                                0.00      0.00      0.00

     DFT-D   stress (kbar)      0.00      0.00      0.00
                                0.00      0.00      0.00
                                0.00      0.00      0.00

     XDM     stress (kbar)      0.00      0.00      0.00
                                0.00      0.00      0.00
                                0.00      0.00      0.00

     dft-nl  stress (kbar)      0.00      0.00      0.00
                                0.00      0.00      0.00
                                0.00      0.00      0.00

     TS-vdW  stress (kbar)      0.00      0.00      0.00
                                0.00      0.00      0.00
                                0.00      0.00      0.00

     MDB     stress (kbar)      0.00      0.00      0.00
                                0.00      0.00      0.00
                                0.00      0.00      0.00

     3D-RISM stress (kbar)      0.00      0.00      0.00
                                0.00      0.00      0.00
                                0.00      0.00      0.00


     Writing all to output data dir ../tmp/Si/Si.save/ :
     XML data file, charge density, pseudopotentials, collected wavefunctions

     init_run     :      1.82s CPU      1.89s WALL (       1 calls)
     electrons    :     10.25s CPU     10.84s WALL (       1 calls)
     forces       :      0.14s CPU      0.14s WALL (       1 calls)
     stress       :      1.72s CPU      1.73s WALL (       1 calls)

     Called by init_run:
     wfcinit      :      1.49s CPU      1.56s WALL (       1 calls)
     wfcinit:atom :      0.06s CPU      0.06s WALL (     512 calls)
     wfcinit:wfcr :      1.18s CPU      1.23s WALL (     512 calls)
     potinit      :      0.01s CPU      0.01s WALL (       1 calls)
     hinit0       :      0.27s CPU      0.27s WALL (       1 calls)

     Called by electrons:
     c_bands      :      9.21s CPU      9.79s WALL (       2 calls)
     sum_band     :      1.03s CPU      1.05s WALL (       2 calls)
     v_of_rho     :      0.00s CPU      0.00s WALL (       2 calls)
     v_h          :      0.00s CPU      0.00s WALL (       2 calls)
     v_xc         :      0.00s CPU      0.00s WALL (       2 calls)
     mix_rho      :      0.00s CPU      0.00s WALL (       2 calls)

     Called by c_bands:
     init_us_2    :      0.42s CPU      0.45s WALL (    3584 calls)
     cegterg      :      8.97s CPU      9.53s WALL (    1024 calls)

     Called by sum_band:
     sum_band:wei :      0.00s CPU      0.00s WALL (       2 calls)
     sum_band:loo :      1.03s CPU      1.04s WALL (       2 calls)
     sum_band:buf :      0.01s CPU      0.01s WALL (    1024 calls)
     sum_band:ini :      0.12s CPU      0.12s WALL (    1024 calls)

     Called by *egterg:
     cdiaghg      :      0.44s CPU      0.49s WALL (    4653 calls)
     cegterg:over :      0.23s CPU      0.24s WALL (    4141 calls)
     cegterg:upda :      0.20s CPU      0.22s WALL (    4141 calls)
     cegterg:last :      0.25s CPU      0.26s WALL (    3130 calls)
     h_psi        :      8.77s CPU      9.26s WALL (    5677 calls)
     g_psi        :      0.08s CPU      0.11s WALL (    4141 calls)

     Called by h_psi:
     h_psi:calbec :      0.14s CPU      0.15s WALL (    5677 calls)
     vloc_psi     :      8.41s CPU      8.88s WALL (    5677 calls)
     add_vuspsi   :      0.14s CPU      0.14s WALL (    5677 calls)

     General routines
     calbec       :      0.19s CPU      0.20s WALL (    8237 calls)
     fft          :      0.24s CPU      0.24s WALL (      11 calls)
     ffts         :      0.00s CPU      0.00s WALL (       2 calls)
     fftw         :      7.79s CPU      8.17s WALL (   73186 calls)


     PWSCF        :     13.99s CPU     14.77s WALL


   This run was terminated on:  19: 0:12   6May2024            

=------------------------------------------------------------------------------=
   JOB DONE.
=------------------------------------------------------------------------------=
