
     Program PWSCF v.7.3.1 starts on  6May2024 at 19: 0:20 

     This program is part of the open-source Quantum ESPRESSO suite
     for quantum simulation of materials; please cite
         "P. Giannozzi et al., J. Phys.:Condens. Matter 21 395502 (2009);
         "P. Giannozzi et al., J. Phys.:Condens. Matter 29 465901 (2017);
         "P. Giannozzi et al., J. Chem. Phys. 152 154105 (2020);
          URL http://www.quantum-espresso.org", 
     in publications or presentations arising from this work. More details at
     http://www.quantum-espresso.org/quote

     Serial version
     1937 MiB available memory on the printing compute node when the environment starts

     Reading input from Si5.pw.in

     Current dimensions of program PWSCF are:
     Max number of different atomic species (ntypx) = 10
     Max number of k-points (npk) =  40000
     Max angular momentum in pseudopotentials (lmaxx) =  4


     G-vector sticks info
     --------------------
     sticks:   dense  smooth     PW     G-vecs:    dense   smooth      PW
     Sum         281     281     99                 6741     6741    1425

     Using Slab Decomposition



     bravais-lattice index     =            0
     lattice parameter (alat)  =       4.8247  a.u.
     unit-cell volume          =     197.5960 (a.u.)^3
     number of atoms/cell      =            2
     number of atomic types    =            1
     number of electrons       =         8.00
     number of Kohn-Sham states=            8
     kinetic-energy cutoff     =      40.0000  Ry
     charge density cutoff     =     160.0000  Ry
     scf convergence threshold =      2.0E-02
     mixing beta               =       0.1000
     number of iterations used =            8  plain     mixing
     Exchange-correlation=  SLA  PZ   NOGX NOGC
                           (   1   1   0   0   0   0   0)

     celldm(1)=   4.824721  celldm(2)=   0.000000  celldm(3)=   0.000000
     celldm(4)=   0.000000  celldm(5)=   0.000000  celldm(6)=   0.000000

     crystal axes: (cart. coord. in units of alat)
               a(1) = (   0.997896   0.064382   0.007707 )  
               a(2) = (  -0.477505   0.924987  -0.053343 )  
               a(3) = (   0.033916  -0.031397   1.846648 )  

     reciprocal axes: (cart. coord. in units 2 pi/alat)
               b(1) = (  0.969912  0.500159 -0.009310 )  
               b(2) = ( -0.067713  1.047239  0.019049 )  
               b(3) = ( -0.006004  0.028164  0.542111 )  


     PseudoPot. # 1 for Si read from file:
     ../pseudo/Si.pz-vbc.UPF
     MD5 check sum: 6dfa03ddd5817404712e03e4d12deb78
     Pseudo is Norm-conserving, Zval =  4.0
     Generated by new atomic code, or converted to UPF format
     Using radial grid of  431 points,  2 beta functions with: 
                l(1) =   0
                l(2) =   1

     atomic species   valence    mass     pseudopotential
     Si                4.00    28.08600     Si( 1.00)

     No symmetry found


                                    s                        frac. trans.

      isym =  1     identity                                     

 cryst.   s( 1) = (     1          0          0      )
                  (     0          1          0      )
                  (     0          0          1      )

 cart.    s( 1) = (  1.0000000 -0.0000000  0.0000000 )
                  ( -0.0000000  1.0000000  0.0000000 )
                  (  0.0000000  0.0000000  1.0000000 )


   Cartesian axes

     site n.     atom                  positions (alat units)
         1        Si     tau(   1) = (   0.0227742   0.6302696   0.4286689  )
         2        Si     tau(   2) = (   0.5315322   0.3277027   1.3723431  )

   Crystallographic axes

     site n.     atom                  positions (cryst. coord.)
         1        Si     tau(   1) = (  0.3333333  0.6666667  0.2500000  )
         2        Si     tau(   2) = (  0.6666667  0.3333333  0.7500000  )

     number of k points=   512  Fermi-Dirac smearing, width (Ry)=  0.0019
                       cart. coord. in units 2pi/alat
        k(    1) = (   0.0000000   0.0000000   0.0000000), wk =   0.0039062
        k(    2) = (  -0.0007505   0.0035205   0.0677638), wk =   0.0039062
        k(    3) = (  -0.0015010   0.0070409   0.1355277), wk =   0.0039062
        k(    4) = (  -0.0022515   0.0105614   0.2032915), wk =   0.0039062
        k(    5) = (   0.0030020  -0.0140818  -0.2710554), wk =   0.0039062
        k(    6) = (   0.0022515  -0.0105614  -0.2032915), wk =   0.0039062
        k(    7) = (   0.0015010  -0.0070409  -0.1355277), wk =   0.0039062
        k(    8) = (   0.0007505  -0.0035205  -0.0677638), wk =   0.0039062
        k(    9) = (  -0.0084641   0.1309049   0.0023811), wk =   0.0039062
        k(   10) = (  -0.0092146   0.1344254   0.0701450), wk =   0.0039062
        k(   11) = (  -0.0099651   0.1379458   0.1379088), wk =   0.0039062
        k(   12) = (  -0.0107156   0.1414663   0.2056726), wk =   0.0039062
        k(   13) = (  -0.0054621   0.1168231  -0.2686743), wk =   0.0039062
        k(   14) = (  -0.0062126   0.1203435  -0.2009104), wk =   0.0039062
        k(   15) = (  -0.0069631   0.1238640  -0.1331466), wk =   0.0039062
        k(   16) = (  -0.0077136   0.1273845  -0.0653827), wk =   0.0039062
        k(   17) = (  -0.0169282   0.2618099   0.0047622), wk =   0.0039062
        k(   18) = (  -0.0176787   0.2653303   0.0725261), wk =   0.0039062
        k(   19) = (  -0.0184292   0.2688508   0.1402899), wk =   0.0039062
        k(   20) = (  -0.0191796   0.2723712   0.2080538), wk =   0.0039062
        k(   21) = (  -0.0139262   0.2477280  -0.2662932), wk =   0.0039062
        k(   22) = (  -0.0146767   0.2512485  -0.1985293), wk =   0.0039062
        k(   23) = (  -0.0154272   0.2547689  -0.1307655), wk =   0.0039062
        k(   24) = (  -0.0161777   0.2582894  -0.0630016), wk =   0.0039062
        k(   25) = (  -0.0253923   0.3927148   0.0071433), wk =   0.0039062
        k(   26) = (  -0.0261427   0.3962352   0.0749072), wk =   0.0039062
        k(   27) = (  -0.0268932   0.3997557   0.1426710), wk =   0.0039062
        k(   28) = (  -0.0276437   0.4032762   0.2104349), wk =   0.0039062
        k(   29) = (  -0.0223903   0.3786329  -0.2639121), wk =   0.0039062
        k(   30) = (  -0.0231408   0.3821534  -0.1961482), wk =   0.0039062
        k(   31) = (  -0.0238913   0.3856739  -0.1283844), wk =   0.0039062
        k(   32) = (  -0.0246418   0.3891943  -0.0606205), wk =   0.0039062
        k(   33) = (   0.0338563  -0.5236197  -0.0095244), wk =   0.0039062
        k(   34) = (   0.0331059  -0.5200992   0.0582394), wk =   0.0039062
        k(   35) = (   0.0323554  -0.5165788   0.1260033), wk =   0.0039062
        k(   36) = (   0.0316049  -0.5130583   0.1937671), wk =   0.0039062
        k(   37) = (   0.0368583  -0.5377015  -0.2805798), wk =   0.0039062
        k(   38) = (   0.0361078  -0.5341811  -0.2128160), wk =   0.0039062
        k(   39) = (   0.0353573  -0.5306606  -0.1450521), wk =   0.0039062
        k(   40) = (   0.0346068  -0.5271402  -0.0772883), wk =   0.0039062
        k(   41) = (   0.0253923  -0.3927148  -0.0071433), wk =   0.0039062
        k(   42) = (   0.0246418  -0.3891943   0.0606205), wk =   0.0039062
        k(   43) = (   0.0238913  -0.3856739   0.1283844), wk =   0.0039062
        k(   44) = (   0.0231408  -0.3821534   0.1961482), wk =   0.0039062
        k(   45) = (   0.0283942  -0.4067966  -0.2781987), wk =   0.0039062
        k(   46) = (   0.0276437  -0.4032762  -0.2104349), wk =   0.0039062
        k(   47) = (   0.0268932  -0.3997557  -0.1426710), wk =   0.0039062
        k(   48) = (   0.0261427  -0.3962352  -0.0749072), wk =   0.0039062
        k(   49) = (   0.0169282  -0.2618099  -0.0047622), wk =   0.0039062
        k(   50) = (   0.0161777  -0.2582894   0.0630016), wk =   0.0039062
        k(   51) = (   0.0154272  -0.2547689   0.1307655), wk =   0.0039062
        k(   52) = (   0.0146767  -0.2512485   0.1985293), wk =   0.0039062
        k(   53) = (   0.0199301  -0.2758917  -0.2758176), wk =   0.0039062
        k(   54) = (   0.0191796  -0.2723712  -0.2080538), wk =   0.0039062
        k(   55) = (   0.0184292  -0.2688508  -0.1402899), wk =   0.0039062
        k(   56) = (   0.0176787  -0.2653303  -0.0725261), wk =   0.0039062
        k(   57) = (   0.0084641  -0.1309049  -0.0023811), wk =   0.0039062
        k(   58) = (   0.0077136  -0.1273845   0.0653827), wk =   0.0039062
        k(   59) = (   0.0069631  -0.1238640   0.1331466), wk =   0.0039062
        k(   60) = (   0.0062126  -0.1203435   0.2009104), wk =   0.0039062
        k(   61) = (   0.0114660  -0.1449868  -0.2734365), wk =   0.0039062
        k(   62) = (   0.0107156  -0.1414663  -0.2056726), wk =   0.0039062
        k(   63) = (   0.0099651  -0.1379458  -0.1379088), wk =   0.0039062
        k(   64) = (   0.0092146  -0.1344254  -0.0701450), wk =   0.0039062
        k(   65) = (   0.1212390   0.0625199  -0.0011637), wk =   0.0039062
        k(   66) = (   0.1204885   0.0660404   0.0666001), wk =   0.0039062
        k(   67) = (   0.1197380   0.0695608   0.1343640), wk =   0.0039062
        k(   68) = (   0.1189875   0.0730813   0.2021278), wk =   0.0039062
        k(   69) = (   0.1242409   0.0484381  -0.2722191), wk =   0.0039062
        k(   70) = (   0.1234904   0.0519585  -0.2044553), wk =   0.0039062
        k(   71) = (   0.1227399   0.0554790  -0.1366914), wk =   0.0039062
        k(   72) = (   0.1219894   0.0589995  -0.0689276), wk =   0.0039062
        k(   73) = (   0.1127749   0.1934248   0.0012174), wk =   0.0039062
        k(   74) = (   0.1120244   0.1969453   0.0689812), wk =   0.0039062
        k(   75) = (   0.1112739   0.2004658   0.1367451), wk =   0.0039062
        k(   76) = (   0.1105234   0.2039862   0.2045089), wk =   0.0039062
        k(   77) = (   0.1157768   0.1793430  -0.2698380), wk =   0.0039062
        k(   78) = (   0.1150263   0.1828635  -0.2020742), wk =   0.0039062
        k(   79) = (   0.1142758   0.1863839  -0.1343103), wk =   0.0039062
        k(   80) = (   0.1135254   0.1899044  -0.0665465), wk =   0.0039062
        k(   81) = (   0.1043108   0.3243298   0.0035985), wk =   0.0039062
        k(   82) = (   0.1035603   0.3278502   0.0713623), wk =   0.0039062
        k(   83) = (   0.1028098   0.3313707   0.1391262), wk =   0.0039062
        k(   84) = (   0.1020593   0.3348911   0.2068900), wk =   0.0039062
        k(   85) = (   0.1073127   0.3102479  -0.2674569), wk =   0.0039062
        k(   86) = (   0.1065622   0.3137684  -0.1996930), wk =   0.0039062
        k(   87) = (   0.1058118   0.3172888  -0.1319292), wk =   0.0039062
        k(   88) = (   0.1050613   0.3208093  -0.0641653), wk =   0.0039062
        k(   89) = (   0.0958467   0.4552347   0.0059796), wk =   0.0039062
        k(   90) = (   0.0950962   0.4587551   0.0737435), wk =   0.0039062
        k(   91) = (   0.0943457   0.4622756   0.1415073), wk =   0.0039062
        k(   92) = (   0.0935952   0.4657961   0.2092711), wk =   0.0039062
        k(   93) = (   0.0988487   0.4411528  -0.2650758), wk =   0.0039062
        k(   94) = (   0.0980982   0.4446733  -0.1973119), wk =   0.0039062
        k(   95) = (   0.0973477   0.4481938  -0.1295481), wk =   0.0039062
        k(   96) = (   0.0965972   0.4517142  -0.0617842), wk =   0.0039062
        k(   97) = (   0.1550953  -0.4610998  -0.0106882), wk =   0.0039062
        k(   98) = (   0.1543448  -0.4575793   0.0570757), wk =   0.0039062
        k(   99) = (   0.1535943  -0.4540589   0.1248395), wk =   0.0039062
        k(  100) = (   0.1528438  -0.4505384   0.1926034), wk =   0.0039062
        k(  101) = (   0.1580973  -0.4751816  -0.2817435), wk =   0.0039062
        k(  102) = (   0.1573468  -0.4716612  -0.2139797), wk =   0.0039062
        k(  103) = (   0.1565963  -0.4681407  -0.1462158), wk =   0.0039062
        k(  104) = (   0.1558458  -0.4646202  -0.0784520), wk =   0.0039062
        k(  105) = (   0.1466312  -0.3301949  -0.0083070), wk =   0.0039062
        k(  106) = (   0.1458807  -0.3266744   0.0594568), wk =   0.0039062
        k(  107) = (   0.1451302  -0.3231539   0.1272206), wk =   0.0039062
        k(  108) = (   0.1443797  -0.3196335   0.1949845), wk =   0.0039062
        k(  109) = (   0.1496332  -0.3442767  -0.2793624), wk =   0.0039062
        k(  110) = (   0.1488827  -0.3407562  -0.2115986), wk =   0.0039062
        k(  111) = (   0.1481322  -0.3372358  -0.1438347), wk =   0.0039062
        k(  112) = (   0.1473817  -0.3337153  -0.0760709), wk =   0.0039062
        k(  113) = (   0.1381671  -0.1992899  -0.0059259), wk =   0.0039062
        k(  114) = (   0.1374166  -0.1957695   0.0618379), wk =   0.0039062
        k(  115) = (   0.1366661  -0.1922490   0.1296018), wk =   0.0039062
        k(  116) = (   0.1359157  -0.1887286   0.1973656), wk =   0.0039062
        k(  117) = (   0.1411691  -0.2133718  -0.2769813), wk =   0.0039062
        k(  118) = (   0.1404186  -0.2098513  -0.2092175), wk =   0.0039062
        k(  119) = (   0.1396681  -0.2063309  -0.1414536), wk =   0.0039062
        k(  120) = (   0.1389176  -0.2028104  -0.0736898), wk =   0.0039062
        k(  121) = (   0.1297030  -0.0683850  -0.0035448), wk =   0.0039062
        k(  122) = (   0.1289525  -0.0648646   0.0642190), wk =   0.0039062
        k(  123) = (   0.1282021  -0.0613441   0.1319829), wk =   0.0039062
        k(  124) = (   0.1274516  -0.0578236   0.1997467), wk =   0.0039062
        k(  125) = (   0.1327050  -0.0824669  -0.2746002), wk =   0.0039062
        k(  126) = (   0.1319545  -0.0789464  -0.2068364), wk =   0.0039062
        k(  127) = (   0.1312040  -0.0754259  -0.1390725), wk =   0.0039062
        k(  128) = (   0.1304535  -0.0719055  -0.0713087), wk =   0.0039062
        k(  129) = (   0.2424779   0.1250398  -0.0023274), wk =   0.0039062
        k(  130) = (   0.2417274   0.1285603   0.0654364), wk =   0.0039062
        k(  131) = (   0.2409769   0.1320807   0.1332003), wk =   0.0039062
        k(  132) = (   0.2402264   0.1356012   0.2009641), wk =   0.0039062
        k(  133) = (   0.2454799   0.1109580  -0.2733828), wk =   0.0039062
        k(  134) = (   0.2447294   0.1144784  -0.2056190), wk =   0.0039062
        k(  135) = (   0.2439789   0.1179989  -0.1378551), wk =   0.0039062
        k(  136) = (   0.2432284   0.1215194  -0.0700913), wk =   0.0039062
        k(  137) = (   0.2340138   0.2559447   0.0000537), wk =   0.0039062
        k(  138) = (   0.2332633   0.2594652   0.0678175), wk =   0.0039062
        k(  139) = (   0.2325128   0.2629857   0.1355814), wk =   0.0039062
        k(  140) = (   0.2317623   0.2665061   0.2033452), wk =   0.0039062
        k(  141) = (   0.2370158   0.2418629  -0.2710017), wk =   0.0039062
        k(  142) = (   0.2362653   0.2453834  -0.2032379), wk =   0.0039062
        k(  143) = (   0.2355148   0.2489038  -0.1354740), wk =   0.0039062
        k(  144) = (   0.2347643   0.2524243  -0.0677102), wk =   0.0039062
        k(  145) = (   0.2255497   0.3868497   0.0024348), wk =   0.0039062
        k(  146) = (   0.2247992   0.3903701   0.0701986), wk =   0.0039062
        k(  147) = (   0.2240488   0.3938906   0.1379625), wk =   0.0039062
        k(  148) = (   0.2232983   0.3974110   0.2057263), wk =   0.0039062
        k(  149) = (   0.2285517   0.3727678  -0.2686206), wk =   0.0039062
        k(  150) = (   0.2278012   0.3762883  -0.2008568), wk =   0.0039062
        k(  151) = (   0.2270507   0.3798088  -0.1330929), wk =   0.0039062
        k(  152) = (   0.2263002   0.3833292  -0.0653291), wk =   0.0039062
        k(  153) = (   0.2170856   0.5177546   0.0048159), wk =   0.0039062
        k(  154) = (   0.2163352   0.5212751   0.0725797), wk =   0.0039062
        k(  155) = (   0.2155847   0.5247955   0.1403436), wk =   0.0039062
        k(  156) = (   0.2148342   0.5283160   0.2081074), wk =   0.0039062
        k(  157) = (   0.2200876   0.5036728  -0.2662395), wk =   0.0039062
        k(  158) = (   0.2193371   0.5071932  -0.1984757), wk =   0.0039062
        k(  159) = (   0.2185866   0.5107137  -0.1307118), wk =   0.0039062
        k(  160) = (   0.2178361   0.5142341  -0.0629480), wk =   0.0039062
        k(  161) = (   0.2763342  -0.3985799  -0.0118519), wk =   0.0039062
        k(  162) = (   0.2755838  -0.3950594   0.0559120), wk =   0.0039062
        k(  163) = (   0.2748333  -0.3915390   0.1236758), wk =   0.0039062
        k(  164) = (   0.2740828  -0.3880185   0.1914397), wk =   0.0039062
        k(  165) = (   0.2793362  -0.4126617  -0.2829073), wk =   0.0039062
        k(  166) = (   0.2785857  -0.4091413  -0.2151434), wk =   0.0039062
        k(  167) = (   0.2778352  -0.4056208  -0.1473796), wk =   0.0039062
        k(  168) = (   0.2770847  -0.4021003  -0.0796157), wk =   0.0039062
        k(  169) = (   0.2678702  -0.2676750  -0.0094708), wk =   0.0039062
        k(  170) = (   0.2671197  -0.2641545   0.0582931), wk =   0.0039062
        k(  171) = (   0.2663692  -0.2606340   0.1260569), wk =   0.0039062
        k(  172) = (   0.2656187  -0.2571136   0.1938208), wk =   0.0039062
        k(  173) = (   0.2708721  -0.2817568  -0.2805261), wk =   0.0039062
        k(  174) = (   0.2701216  -0.2782363  -0.2127623), wk =   0.0039062
        k(  175) = (   0.2693711  -0.2747159  -0.1449985), wk =   0.0039062
        k(  176) = (   0.2686206  -0.2711954  -0.0772346), wk =   0.0039062
        k(  177) = (   0.2594061  -0.1367700  -0.0070897), wk =   0.0039062
        k(  178) = (   0.2586556  -0.1332496   0.0606742), wk =   0.0039062
        k(  179) = (   0.2579051  -0.1297291   0.1284380), wk =   0.0039062
        k(  180) = (   0.2571546  -0.1262087   0.1962019), wk =   0.0039062
        k(  181) = (   0.2624080  -0.1508519  -0.2781450), wk =   0.0039062
        k(  182) = (   0.2616575  -0.1473314  -0.2103812), wk =   0.0039062
        k(  183) = (   0.2609071  -0.1438109  -0.1426173), wk =   0.0039062
        k(  184) = (   0.2601566  -0.1402905  -0.0748535), wk =   0.0039062
        k(  185) = (   0.2509420  -0.0058651  -0.0047085), wk =   0.0039062
        k(  186) = (   0.2501915  -0.0023446   0.0630553), wk =   0.0039062
        k(  187) = (   0.2494410   0.0011758   0.1308191), wk =   0.0039062
        k(  188) = (   0.2486905   0.0046963   0.1985830), wk =   0.0039062
        k(  189) = (   0.2539439  -0.0199469  -0.2757639), wk =   0.0039062
        k(  190) = (   0.2531935  -0.0164265  -0.2080001), wk =   0.0039062
        k(  191) = (   0.2524430  -0.0129060  -0.1402362), wk =   0.0039062
        k(  192) = (   0.2516925  -0.0093856  -0.0724724), wk =   0.0039062
        k(  193) = (   0.3637169   0.1875597  -0.0034912), wk =   0.0039062
        k(  194) = (   0.3629664   0.1910802   0.0642727), wk =   0.0039062
        k(  195) = (   0.3622159   0.1946006   0.1320365), wk =   0.0039062
        k(  196) = (   0.3614654   0.1981211   0.1998004), wk =   0.0039062
        k(  197) = (   0.3667188   0.1734779  -0.2745465), wk =   0.0039062
        k(  198) = (   0.3659683   0.1769984  -0.2067827), wk =   0.0039062
        k(  199) = (   0.3652178   0.1805188  -0.1390188), wk =   0.0039062
        k(  200) = (   0.3644673   0.1840393  -0.0712550), wk =   0.0039062
        k(  201) = (   0.3552528   0.3184647  -0.0011100), wk =   0.0039062
        k(  202) = (   0.3545023   0.3219851   0.0666538), wk =   0.0039062
        k(  203) = (   0.3537518   0.3255056   0.1344176), wk =   0.0039062
        k(  204) = (   0.3530013   0.3290260   0.2021815), wk =   0.0039062
        k(  205) = (   0.3582547   0.3043828  -0.2721654), wk =   0.0039062
        k(  206) = (   0.3575042   0.3079033  -0.2044016), wk =   0.0039062
        k(  207) = (   0.3567537   0.3114237  -0.1366377), wk =   0.0039062
        k(  208) = (   0.3560033   0.3149442  -0.0688739), wk =   0.0039062
        k(  209) = (   0.3467887   0.4493696   0.0012711), wk =   0.0039062
        k(  210) = (   0.3460382   0.4528900   0.0690349), wk =   0.0039062
        k(  211) = (   0.3452877   0.4564105   0.1367988), wk =   0.0039062
        k(  212) = (   0.3445372   0.4599310   0.2045626), wk =   0.0039062
        k(  213) = (   0.3497906   0.4352877  -0.2697843), wk =   0.0039062
        k(  214) = (   0.3490401   0.4388082  -0.2020205), wk =   0.0039062
        k(  215) = (   0.3482897   0.4423287  -0.1342566), wk =   0.0039062
        k(  216) = (   0.3475392   0.4458491  -0.0664928), wk =   0.0039062
        k(  217) = (   0.3383246   0.5802745   0.0036522), wk =   0.0039062
        k(  218) = (   0.3375741   0.5837950   0.0714160), wk =   0.0039062
        k(  219) = (   0.3368236   0.5873154   0.1391799), wk =   0.0039062
        k(  220) = (   0.3360731   0.5908359   0.2069437), wk =   0.0039062
        k(  221) = (   0.3413266   0.5661927  -0.2674032), wk =   0.0039062
        k(  222) = (   0.3405761   0.5697131  -0.1996394), wk =   0.0039062
        k(  223) = (   0.3398256   0.5732336  -0.1318755), wk =   0.0039062
        k(  224) = (   0.3390751   0.5767540  -0.0641117), wk =   0.0039062
        k(  225) = (   0.3975732  -0.3360600  -0.0130156), wk =   0.0039062
        k(  226) = (   0.3968227  -0.3325395   0.0547483), wk =   0.0039062
        k(  227) = (   0.3960722  -0.3290191   0.1225121), wk =   0.0039062
        k(  228) = (   0.3953217  -0.3254986   0.1902759), wk =   0.0039062
        k(  229) = (   0.4005752  -0.3501418  -0.2840710), wk =   0.0039062
        k(  230) = (   0.3998247  -0.3466213  -0.2163071), wk =   0.0039062
        k(  231) = (   0.3990742  -0.3431009  -0.1485433), wk =   0.0039062
        k(  232) = (   0.3983237  -0.3395804  -0.0807794), wk =   0.0039062
        k(  233) = (   0.3891091  -0.2051550  -0.0106345), wk =   0.0039062
        k(  234) = (   0.3883586  -0.2016346   0.0571294), wk =   0.0039062
        k(  235) = (   0.3876081  -0.1981141   0.1248932), wk =   0.0039062
        k(  236) = (   0.3868576  -0.1945937   0.1926571), wk =   0.0039062
        k(  237) = (   0.3921111  -0.2192369  -0.2816899), wk =   0.0039062
        k(  238) = (   0.3913606  -0.2157164  -0.2139260), wk =   0.0039062
        k(  239) = (   0.3906101  -0.2121960  -0.1461622), wk =   0.0039062
        k(  240) = (   0.3898596  -0.2086755  -0.0783983), wk =   0.0039062
        k(  241) = (   0.3806450  -0.0742501  -0.0082534), wk =   0.0039062
        k(  242) = (   0.3798945  -0.0707297   0.0595105), wk =   0.0039062
        k(  243) = (   0.3791440  -0.0672092   0.1272743), wk =   0.0039062
        k(  244) = (   0.3783936  -0.0636887   0.1950382), wk =   0.0039062
        k(  245) = (   0.3836470  -0.0883320  -0.2793088), wk =   0.0039062
        k(  246) = (   0.3828965  -0.0848115  -0.2115449), wk =   0.0039062
        k(  247) = (   0.3821460  -0.0812910  -0.1437811), wk =   0.0039062
        k(  248) = (   0.3813955  -0.0777706  -0.0760172), wk =   0.0039062
        k(  249) = (   0.3721809   0.0566548  -0.0058723), wk =   0.0039062
        k(  250) = (   0.3714304   0.0601753   0.0618916), wk =   0.0039062
        k(  251) = (   0.3706800   0.0636957   0.1296554), wk =   0.0039062
        k(  252) = (   0.3699295   0.0672162   0.1974193), wk =   0.0039062
        k(  253) = (   0.3751829   0.0425730  -0.2769277), wk =   0.0039062
        k(  254) = (   0.3744324   0.0460934  -0.2091638), wk =   0.0039062
        k(  255) = (   0.3736819   0.0496139  -0.1414000), wk =   0.0039062
        k(  256) = (   0.3729314   0.0531343  -0.0736361), wk =   0.0039062
        k(  257) = (  -0.4849558  -0.2500796   0.0046549), wk =   0.0039062
        k(  258) = (  -0.4857063  -0.2465592   0.0724187), wk =   0.0039062
        k(  259) = (  -0.4864568  -0.2430387   0.1401826), wk =   0.0039062
        k(  260) = (  -0.4872073  -0.2395183   0.2079464), wk =   0.0039062
        k(  261) = (  -0.4819538  -0.2641615  -0.2664005), wk =   0.0039062
        k(  262) = (  -0.4827043  -0.2606410  -0.1986367), wk =   0.0039062
        k(  263) = (  -0.4834548  -0.2571206  -0.1308728), wk =   0.0039062
        k(  264) = (  -0.4842053  -0.2536001  -0.0631090), wk =   0.0039062
        k(  265) = (  -0.4934199  -0.1191747   0.0070360), wk =   0.0039062
        k(  266) = (  -0.4941704  -0.1156543   0.0747998), wk =   0.0039062
        k(  267) = (  -0.4949209  -0.1121338   0.1425637), wk =   0.0039062
        k(  268) = (  -0.4956714  -0.1086133   0.2103275), wk =   0.0039062
        k(  269) = (  -0.4904179  -0.1332565  -0.2640194), wk =   0.0039062
        k(  270) = (  -0.4911684  -0.1297361  -0.1962556), wk =   0.0039062
        k(  271) = (  -0.4919189  -0.1262156  -0.1284917), wk =   0.0039062
        k(  272) = (  -0.4926694  -0.1226952  -0.0607279), wk =   0.0039062
        k(  273) = (  -0.5018840   0.0117302   0.0094171), wk =   0.0039062
        k(  274) = (  -0.5026345   0.0152507   0.0771809), wk =   0.0039062
        k(  275) = (  -0.5033850   0.0187711   0.1449448), wk =   0.0039062
        k(  276) = (  -0.5041354   0.0222916   0.2127086), wk =   0.0039062
        k(  277) = (  -0.4988820  -0.0023516  -0.2616383), wk =   0.0039062
        k(  278) = (  -0.4996325   0.0011688  -0.1938744), wk =   0.0039062
        k(  279) = (  -0.5003830   0.0046893  -0.1261106), wk =   0.0039062
        k(  280) = (  -0.5011335   0.0082098  -0.0583468), wk =   0.0039062
        k(  281) = (  -0.5103481   0.1426351   0.0117982), wk =   0.0039062
        k(  282) = (  -0.5110986   0.1461556   0.0795620), wk =   0.0039062
        k(  283) = (  -0.5118490   0.1496761   0.1473259), wk =   0.0039062
        k(  284) = (  -0.5125995   0.1531965   0.2150897), wk =   0.0039062
        k(  285) = (  -0.5073461   0.1285533  -0.2592572), wk =   0.0039062
        k(  286) = (  -0.5080966   0.1320738  -0.1914933), wk =   0.0039062
        k(  287) = (  -0.5088471   0.1355942  -0.1237295), wk =   0.0039062
        k(  288) = (  -0.5095976   0.1391147  -0.0559656), wk =   0.0039062
        k(  289) = (  -0.4510995  -0.7736993  -0.0048696), wk =   0.0039062
        k(  290) = (  -0.4518499  -0.7701789   0.0628943), wk =   0.0039062
        k(  291) = (  -0.4526004  -0.7666584   0.1306581), wk =   0.0039062
        k(  292) = (  -0.4533509  -0.7631380   0.1984220), wk =   0.0039062
        k(  293) = (  -0.4480975  -0.7877812  -0.2759249), wk =   0.0039062
        k(  294) = (  -0.4488480  -0.7842607  -0.2081611), wk =   0.0039062
        k(  295) = (  -0.4495985  -0.7807403  -0.1403973), wk =   0.0039062
        k(  296) = (  -0.4503490  -0.7772198  -0.0726334), wk =   0.0039062
        k(  297) = (  -0.4595635  -0.6427944  -0.0024884), wk =   0.0039062
        k(  298) = (  -0.4603140  -0.6392740   0.0652754), wk =   0.0039062
        k(  299) = (  -0.4610645  -0.6357535   0.1330392), wk =   0.0039062
        k(  300) = (  -0.4618150  -0.6322330   0.2008031), wk =   0.0039062
        k(  301) = (  -0.4565616  -0.6568762  -0.2735438), wk =   0.0039062
        k(  302) = (  -0.4573121  -0.6533558  -0.2057800), wk =   0.0039062
        k(  303) = (  -0.4580626  -0.6498353  -0.1380161), wk =   0.0039062
        k(  304) = (  -0.4588131  -0.6463149  -0.0702523), wk =   0.0039062
        k(  305) = (  -0.4680276  -0.5118895  -0.0001073), wk =   0.0039062
        k(  306) = (  -0.4687781  -0.5083690   0.0676565), wk =   0.0039062
        k(  307) = (  -0.4695286  -0.5048486   0.1354204), wk =   0.0039062
        k(  308) = (  -0.4702791  -0.5013281   0.2031842), wk =   0.0039062
        k(  309) = (  -0.4650257  -0.5259713  -0.2711627), wk =   0.0039062
        k(  310) = (  -0.4657762  -0.5224509  -0.2033989), wk =   0.0039062
        k(  311) = (  -0.4665267  -0.5189304  -0.1356350), wk =   0.0039062
        k(  312) = (  -0.4672771  -0.5154099  -0.0678712), wk =   0.0039062
        k(  313) = (  -0.4764917  -0.3809846   0.0022738), wk =   0.0039062
        k(  314) = (  -0.4772422  -0.3774641   0.0700376), wk =   0.0039062
        k(  315) = (  -0.4779927  -0.3739436   0.1378015), wk =   0.0039062
        k(  316) = (  -0.4787432  -0.3704232   0.2055653), wk =   0.0039062
        k(  317) = (  -0.4734898  -0.3950664  -0.2687816), wk =   0.0039062
        k(  318) = (  -0.4742402  -0.3915459  -0.2010178), wk =   0.0039062
        k(  319) = (  -0.4749907  -0.3880255  -0.1332539), wk =   0.0039062
        k(  320) = (  -0.4757412  -0.3845050  -0.0654901), wk =   0.0039062
        k(  321) = (  -0.3637169  -0.1875597   0.0034912), wk =   0.0039062
        k(  322) = (  -0.3644673  -0.1840393   0.0712550), wk =   0.0039062
        k(  323) = (  -0.3652178  -0.1805188   0.1390188), wk =   0.0039062
        k(  324) = (  -0.3659683  -0.1769984   0.2067827), wk =   0.0039062
        k(  325) = (  -0.3607149  -0.2016416  -0.2675642), wk =   0.0039062
        k(  326) = (  -0.3614654  -0.1981211  -0.1998004), wk =   0.0039062
        k(  327) = (  -0.3622159  -0.1946006  -0.1320365), wk =   0.0039062
        k(  328) = (  -0.3629664  -0.1910802  -0.0642727), wk =   0.0039062
        k(  329) = (  -0.3721809  -0.0566548   0.0058723), wk =   0.0039062
        k(  330) = (  -0.3729314  -0.0531343   0.0736361), wk =   0.0039062
        k(  331) = (  -0.3736819  -0.0496139   0.1414000), wk =   0.0039062
        k(  332) = (  -0.3744324  -0.0460934   0.2091638), wk =   0.0039062
        k(  333) = (  -0.3691790  -0.0707366  -0.2651831), wk =   0.0039062
        k(  334) = (  -0.3699295  -0.0672162  -0.1974193), wk =   0.0039062
        k(  335) = (  -0.3706800  -0.0636957  -0.1296554), wk =   0.0039062
        k(  336) = (  -0.3714304  -0.0601753  -0.0618916), wk =   0.0039062
        k(  337) = (  -0.3806450   0.0742501   0.0082534), wk =   0.0039062
        k(  338) = (  -0.3813955   0.0777706   0.0760172), wk =   0.0039062
        k(  339) = (  -0.3821460   0.0812910   0.1437811), wk =   0.0039062
        k(  340) = (  -0.3828965   0.0848115   0.2115449), wk =   0.0039062
        k(  341) = (  -0.3776431   0.0601683  -0.2628020), wk =   0.0039062
        k(  342) = (  -0.3783936   0.0636887  -0.1950382), wk =   0.0039062
        k(  343) = (  -0.3791440   0.0672092  -0.1272743), wk =   0.0039062
        k(  344) = (  -0.3798945   0.0707297  -0.0595105), wk =   0.0039062
        k(  345) = (  -0.3891091   0.2051550   0.0106345), wk =   0.0039062
        k(  346) = (  -0.3898596   0.2086755   0.0783983), wk =   0.0039062
        k(  347) = (  -0.3906101   0.2121960   0.1461622), wk =   0.0039062
        k(  348) = (  -0.3913606   0.2157164   0.2139260), wk =   0.0039062
        k(  349) = (  -0.3861072   0.1910732  -0.2604209), wk =   0.0039062
        k(  350) = (  -0.3868576   0.1945937  -0.1926571), wk =   0.0039062
        k(  351) = (  -0.3876081   0.1981141  -0.1248932), wk =   0.0039062
        k(  352) = (  -0.3883586   0.2016346  -0.0571294), wk =   0.0039062
        k(  353) = (  -0.3298605  -0.7111794  -0.0060333), wk =   0.0039062
        k(  354) = (  -0.3306110  -0.7076590   0.0617306), wk =   0.0039062
        k(  355) = (  -0.3313615  -0.7041385   0.1294944), wk =   0.0039062
        k(  356) = (  -0.3321120  -0.7006181   0.1972583), wk =   0.0039062
        k(  357) = (  -0.3268585  -0.7252613  -0.2770887), wk =   0.0039062
        k(  358) = (  -0.3276090  -0.7217408  -0.2093248), wk =   0.0039062
        k(  359) = (  -0.3283595  -0.7182203  -0.1415610), wk =   0.0039062
        k(  360) = (  -0.3291100  -0.7146999  -0.0737971), wk =   0.0039062
        k(  361) = (  -0.3383246  -0.5802745  -0.0036522), wk =   0.0039062
        k(  362) = (  -0.3390751  -0.5767540   0.0641117), wk =   0.0039062
        k(  363) = (  -0.3398256  -0.5732336   0.1318755), wk =   0.0039062
        k(  364) = (  -0.3405761  -0.5697131   0.1996394), wk =   0.0039062
        k(  365) = (  -0.3353226  -0.5943563  -0.2747076), wk =   0.0039062
        k(  366) = (  -0.3360731  -0.5908359  -0.2069437), wk =   0.0039062
        k(  367) = (  -0.3368236  -0.5873154  -0.1391799), wk =   0.0039062
        k(  368) = (  -0.3375741  -0.5837950  -0.0714160), wk =   0.0039062
        k(  369) = (  -0.3467887  -0.4493696  -0.0012711), wk =   0.0039062
        k(  370) = (  -0.3475392  -0.4458491   0.0664928), wk =   0.0039062
        k(  371) = (  -0.3482897  -0.4423287   0.1342566), wk =   0.0039062
        k(  372) = (  -0.3490401  -0.4388082   0.2020205), wk =   0.0039062
        k(  373) = (  -0.3437867  -0.4634514  -0.2723264), wk =   0.0039062
        k(  374) = (  -0.3445372  -0.4599310  -0.2045626), wk =   0.0039062
        k(  375) = (  -0.3452877  -0.4564105  -0.1367988), wk =   0.0039062
        k(  376) = (  -0.3460382  -0.4528900  -0.0690349), wk =   0.0039062
        k(  377) = (  -0.3552528  -0.3184647   0.0011100), wk =   0.0039062
        k(  378) = (  -0.3560033  -0.3149442   0.0688739), wk =   0.0039062
        k(  379) = (  -0.3567537  -0.3114237   0.1366377), wk =   0.0039062
        k(  380) = (  -0.3575042  -0.3079033   0.2044016), wk =   0.0039062
        k(  381) = (  -0.3522508  -0.3325465  -0.2699453), wk =   0.0039062
        k(  382) = (  -0.3530013  -0.3290260  -0.2021815), wk =   0.0039062
        k(  383) = (  -0.3537518  -0.3255056  -0.1344176), wk =   0.0039062
        k(  384) = (  -0.3545023  -0.3219851  -0.0666538), wk =   0.0039062
        k(  385) = (  -0.2424779  -0.1250398   0.0023274), wk =   0.0039062
        k(  386) = (  -0.2432284  -0.1215194   0.0700913), wk =   0.0039062
        k(  387) = (  -0.2439789  -0.1179989   0.1378551), wk =   0.0039062
        k(  388) = (  -0.2447294  -0.1144784   0.2056190), wk =   0.0039062
        k(  389) = (  -0.2394759  -0.1391217  -0.2687279), wk =   0.0039062
        k(  390) = (  -0.2402264  -0.1356012  -0.2009641), wk =   0.0039062
        k(  391) = (  -0.2409769  -0.1320807  -0.1332003), wk =   0.0039062
        k(  392) = (  -0.2417274  -0.1285603  -0.0654364), wk =   0.0039062
        k(  393) = (  -0.2509420   0.0058651   0.0047085), wk =   0.0039062
        k(  394) = (  -0.2516925   0.0093856   0.0724724), wk =   0.0039062
        k(  395) = (  -0.2524430   0.0129060   0.1402362), wk =   0.0039062
        k(  396) = (  -0.2531935   0.0164265   0.2080001), wk =   0.0039062
        k(  397) = (  -0.2479400  -0.0082167  -0.2663468), wk =   0.0039062
        k(  398) = (  -0.2486905  -0.0046963  -0.1985830), wk =   0.0039062
        k(  399) = (  -0.2494410  -0.0011758  -0.1308191), wk =   0.0039062
        k(  400) = (  -0.2501915   0.0023446  -0.0630553), wk =   0.0039062
        k(  401) = (  -0.2594061   0.1367700   0.0070897), wk =   0.0039062
        k(  402) = (  -0.2601566   0.1402905   0.0748535), wk =   0.0039062
        k(  403) = (  -0.2609071   0.1438109   0.1426173), wk =   0.0039062
        k(  404) = (  -0.2616575   0.1473314   0.2103812), wk =   0.0039062
        k(  405) = (  -0.2564041   0.1226882  -0.2639657), wk =   0.0039062
        k(  406) = (  -0.2571546   0.1262087  -0.1962019), wk =   0.0039062
        k(  407) = (  -0.2579051   0.1297291  -0.1284380), wk =   0.0039062
        k(  408) = (  -0.2586556   0.1332496  -0.0606742), wk =   0.0039062
        k(  409) = (  -0.2678702   0.2676750   0.0094708), wk =   0.0039062
        k(  410) = (  -0.2686206   0.2711954   0.0772346), wk =   0.0039062
        k(  411) = (  -0.2693711   0.2747159   0.1449985), wk =   0.0039062
        k(  412) = (  -0.2701216   0.2782363   0.2127623), wk =   0.0039062
        k(  413) = (  -0.2648682   0.2535931  -0.2615846), wk =   0.0039062
        k(  414) = (  -0.2656187   0.2571136  -0.1938208), wk =   0.0039062
        k(  415) = (  -0.2663692   0.2606340  -0.1260569), wk =   0.0039062
        k(  416) = (  -0.2671197   0.2641545  -0.0582931), wk =   0.0039062
        k(  417) = (  -0.2086216  -0.6486595  -0.0071970), wk =   0.0039062
        k(  418) = (  -0.2093720  -0.6451391   0.0605669), wk =   0.0039062
        k(  419) = (  -0.2101225  -0.6416186   0.1283307), wk =   0.0039062
        k(  420) = (  -0.2108730  -0.6380981   0.1960945), wk =   0.0039062
        k(  421) = (  -0.2056196  -0.6627414  -0.2782524), wk =   0.0039062
        k(  422) = (  -0.2063701  -0.6592209  -0.2104885), wk =   0.0039062
        k(  423) = (  -0.2071206  -0.6557004  -0.1427247), wk =   0.0039062
        k(  424) = (  -0.2078711  -0.6521800  -0.0749608), wk =   0.0039062
        k(  425) = (  -0.2170856  -0.5177546  -0.0048159), wk =   0.0039062
        k(  426) = (  -0.2178361  -0.5142341   0.0629480), wk =   0.0039062
        k(  427) = (  -0.2185866  -0.5107137   0.1307118), wk =   0.0039062
        k(  428) = (  -0.2193371  -0.5071932   0.1984757), wk =   0.0039062
        k(  429) = (  -0.2140837  -0.5318364  -0.2758713), wk =   0.0039062
        k(  430) = (  -0.2148342  -0.5283160  -0.2081074), wk =   0.0039062
        k(  431) = (  -0.2155847  -0.5247955  -0.1403436), wk =   0.0039062
        k(  432) = (  -0.2163352  -0.5212751  -0.0725797), wk =   0.0039062
        k(  433) = (  -0.2255497  -0.3868497  -0.0024348), wk =   0.0039062
        k(  434) = (  -0.2263002  -0.3833292   0.0653291), wk =   0.0039062
        k(  435) = (  -0.2270507  -0.3798088   0.1330929), wk =   0.0039062
        k(  436) = (  -0.2278012  -0.3762883   0.2008568), wk =   0.0039062
        k(  437) = (  -0.2225478  -0.4009315  -0.2734902), wk =   0.0039062
        k(  438) = (  -0.2232983  -0.3974110  -0.2057263), wk =   0.0039062
        k(  439) = (  -0.2240488  -0.3938906  -0.1379625), wk =   0.0039062
        k(  440) = (  -0.2247992  -0.3903701  -0.0701986), wk =   0.0039062
        k(  441) = (  -0.2340138  -0.2559447  -0.0000537), wk =   0.0039062
        k(  442) = (  -0.2347643  -0.2524243   0.0677102), wk =   0.0039062
        k(  443) = (  -0.2355148  -0.2489038   0.1354740), wk =   0.0039062
        k(  444) = (  -0.2362653  -0.2453834   0.2032379), wk =   0.0039062
        k(  445) = (  -0.2310119  -0.2700266  -0.2711091), wk =   0.0039062
        k(  446) = (  -0.2317623  -0.2665061  -0.2033452), wk =   0.0039062
        k(  447) = (  -0.2325128  -0.2629857  -0.1355814), wk =   0.0039062
        k(  448) = (  -0.2332633  -0.2594652  -0.0678175), wk =   0.0039062
        k(  449) = (  -0.1212390  -0.0625199   0.0011637), wk =   0.0039062
        k(  450) = (  -0.1219894  -0.0589995   0.0689276), wk =   0.0039062
        k(  451) = (  -0.1227399  -0.0554790   0.1366914), wk =   0.0039062
        k(  452) = (  -0.1234904  -0.0519585   0.2044553), wk =   0.0039062
        k(  453) = (  -0.1182370  -0.0766017  -0.2698917), wk =   0.0039062
        k(  454) = (  -0.1189875  -0.0730813  -0.2021278), wk =   0.0039062
        k(  455) = (  -0.1197380  -0.0695608  -0.1343640), wk =   0.0039062
        k(  456) = (  -0.1204885  -0.0660404  -0.0666001), wk =   0.0039062
        k(  457) = (  -0.1297030   0.0683850   0.0035448), wk =   0.0039062
        k(  458) = (  -0.1304535   0.0719055   0.0713087), wk =   0.0039062
        k(  459) = (  -0.1312040   0.0754259   0.1390725), wk =   0.0039062
        k(  460) = (  -0.1319545   0.0789464   0.2068364), wk =   0.0039062
        k(  461) = (  -0.1267011   0.0543032  -0.2675106), wk =   0.0039062
        k(  462) = (  -0.1274516   0.0578236  -0.1997467), wk =   0.0039062
        k(  463) = (  -0.1282021   0.0613441  -0.1319829), wk =   0.0039062
        k(  464) = (  -0.1289525   0.0648646  -0.0642190), wk =   0.0039062
        k(  465) = (  -0.1381671   0.1992899   0.0059259), wk =   0.0039062
        k(  466) = (  -0.1389176   0.2028104   0.0736898), wk =   0.0039062
        k(  467) = (  -0.1396681   0.2063309   0.1414536), wk =   0.0039062
        k(  468) = (  -0.1404186   0.2098513   0.2092175), wk =   0.0039062
        k(  469) = (  -0.1351652   0.1852081  -0.2651295), wk =   0.0039062
        k(  470) = (  -0.1359157   0.1887286  -0.1973656), wk =   0.0039062
        k(  471) = (  -0.1366661   0.1922490  -0.1296018), wk =   0.0039062
        k(  472) = (  -0.1374166   0.1957695  -0.0618379), wk =   0.0039062
        k(  473) = (  -0.1466312   0.3301949   0.0083070), wk =   0.0039062
        k(  474) = (  -0.1473817   0.3337153   0.0760709), wk =   0.0039062
        k(  475) = (  -0.1481322   0.3372358   0.1438347), wk =   0.0039062
        k(  476) = (  -0.1488827   0.3407562   0.2115986), wk =   0.0039062
        k(  477) = (  -0.1436293   0.3161130  -0.2627483), wk =   0.0039062
        k(  478) = (  -0.1443797   0.3196335  -0.1949845), wk =   0.0039062
        k(  479) = (  -0.1451302   0.3231539  -0.1272206), wk =   0.0039062
        k(  480) = (  -0.1458807   0.3266744  -0.0594568), wk =   0.0039062
        k(  481) = (  -0.0873826  -0.5861396  -0.0083607), wk =   0.0039062
        k(  482) = (  -0.0881331  -0.5826192   0.0594031), wk =   0.0039062
        k(  483) = (  -0.0888836  -0.5790987   0.1271670), wk =   0.0039062
        k(  484) = (  -0.0896341  -0.5755782   0.1949308), wk =   0.0039062
        k(  485) = (  -0.0843806  -0.6002214  -0.2794161), wk =   0.0039062
        k(  486) = (  -0.0851311  -0.5967010  -0.2116523), wk =   0.0039062
        k(  487) = (  -0.0858816  -0.5931805  -0.1438884), wk =   0.0039062
        k(  488) = (  -0.0866321  -0.5896601  -0.0761246), wk =   0.0039062
        k(  489) = (  -0.0958467  -0.4552347  -0.0059796), wk =   0.0039062
        k(  490) = (  -0.0965972  -0.4517142   0.0617842), wk =   0.0039062
        k(  491) = (  -0.0973477  -0.4481938   0.1295481), wk =   0.0039062
        k(  492) = (  -0.0980982  -0.4446733   0.1973119), wk =   0.0039062
        k(  493) = (  -0.0928447  -0.4693165  -0.2770350), wk =   0.0039062
        k(  494) = (  -0.0935952  -0.4657961  -0.2092711), wk =   0.0039062
        k(  495) = (  -0.0943457  -0.4622756  -0.1415073), wk =   0.0039062
        k(  496) = (  -0.0950962  -0.4587551  -0.0737435), wk =   0.0039062
        k(  497) = (  -0.1043108  -0.3243298  -0.0035985), wk =   0.0039062
        k(  498) = (  -0.1050613  -0.3208093   0.0641653), wk =   0.0039062
        k(  499) = (  -0.1058118  -0.3172888   0.1319292), wk =   0.0039062
        k(  500) = (  -0.1065622  -0.3137684   0.1996930), wk =   0.0039062
        k(  501) = (  -0.1013088  -0.3384116  -0.2746539), wk =   0.0039062
        k(  502) = (  -0.1020593  -0.3348911  -0.2068900), wk =   0.0039062
        k(  503) = (  -0.1028098  -0.3313707  -0.1391262), wk =   0.0039062
        k(  504) = (  -0.1035603  -0.3278502  -0.0713623), wk =   0.0039062
        k(  505) = (  -0.1127749  -0.1934248  -0.0012174), wk =   0.0039062
        k(  506) = (  -0.1135254  -0.1899044   0.0665465), wk =   0.0039062
        k(  507) = (  -0.1142758  -0.1863839   0.1343103), wk =   0.0039062
        k(  508) = (  -0.1150263  -0.1828635   0.2020742), wk =   0.0039062
        k(  509) = (  -0.1097729  -0.2075067  -0.2722728), wk =   0.0039062
        k(  510) = (  -0.1105234  -0.2039862  -0.2045089), wk =   0.0039062
        k(  511) = (  -0.1112739  -0.2004658  -0.1367451), wk =   0.0039062
        k(  512) = (  -0.1120244  -0.1969453  -0.0689812), wk =   0.0039062

                       cryst. coord.
        k(    1) = (   0.0000000   0.0000000   0.0000000), wk =   0.0039062
        k(    2) = (   0.0000000   0.0000000   0.1250000), wk =   0.0039062
        k(    3) = (   0.0000000   0.0000000   0.2500000), wk =   0.0039062
        k(    4) = (   0.0000000   0.0000000   0.3750000), wk =   0.0039062
        k(    5) = (   0.0000000  -0.0000000  -0.5000000), wk =   0.0039062
        k(    6) = (   0.0000000   0.0000000  -0.3750000), wk =   0.0039062
        k(    7) = (   0.0000000  -0.0000000  -0.2500000), wk =   0.0039062
        k(    8) = (   0.0000000  -0.0000000  -0.1250000), wk =   0.0039062
        k(    9) = (   0.0000000   0.1250000   0.0000000), wk =   0.0039062
        k(   10) = (   0.0000000   0.1250000   0.1250000), wk =   0.0039062
        k(   11) = (   0.0000000   0.1250000   0.2500000), wk =   0.0039062
        k(   12) = (  -0.0000000   0.1250000   0.3750000), wk =   0.0039062
        k(   13) = (   0.0000000   0.1250000  -0.5000000), wk =   0.0039062
        k(   14) = (   0.0000000   0.1250000  -0.3750000), wk =   0.0039062
        k(   15) = (   0.0000000   0.1250000  -0.2500000), wk =   0.0039062
        k(   16) = (   0.0000000   0.1250000  -0.1250000), wk =   0.0039062
        k(   17) = (   0.0000000   0.2500000   0.0000000), wk =   0.0039062
        k(   18) = (   0.0000000   0.2500000   0.1250000), wk =   0.0039062
        k(   19) = (   0.0000000   0.2500000   0.2500000), wk =   0.0039062
        k(   20) = (   0.0000000   0.2500000   0.3750000), wk =   0.0039062
        k(   21) = (   0.0000000   0.2500000  -0.5000000), wk =   0.0039062
        k(   22) = (   0.0000000   0.2500000  -0.3750000), wk =   0.0039062
        k(   23) = (   0.0000000   0.2500000  -0.2500000), wk =   0.0039062
        k(   24) = (   0.0000000   0.2500000  -0.1250000), wk =   0.0039062
        k(   25) = (   0.0000000   0.3750000  -0.0000000), wk =   0.0039062
        k(   26) = (  -0.0000000   0.3750000   0.1250000), wk =   0.0039062
        k(   27) = (  -0.0000000   0.3750000   0.2500000), wk =   0.0039062
        k(   28) = (   0.0000000   0.3750000   0.3750000), wk =   0.0039062
        k(   29) = (  -0.0000000   0.3750000  -0.5000000), wk =   0.0039062
        k(   30) = (   0.0000000   0.3750000  -0.3750000), wk =   0.0039062
        k(   31) = (   0.0000000   0.3750000  -0.2500000), wk =   0.0039062
        k(   32) = (  -0.0000000   0.3750000  -0.1250000), wk =   0.0039062
        k(   33) = (  -0.0000000  -0.5000000   0.0000000), wk =   0.0039062
        k(   34) = (  -0.0000000  -0.5000000   0.1250000), wk =   0.0039062
        k(   35) = (  -0.0000000  -0.5000000   0.2500000), wk =   0.0039062
        k(   36) = (  -0.0000000  -0.5000000   0.3750000), wk =   0.0039062
        k(   37) = (  -0.0000000  -0.5000000  -0.5000000), wk =   0.0039062
        k(   38) = (  -0.0000000  -0.5000000  -0.3750000), wk =   0.0039062
        k(   39) = (  -0.0000000  -0.5000000  -0.2500000), wk =   0.0039062
        k(   40) = (  -0.0000000  -0.5000000  -0.1250000), wk =   0.0039062
        k(   41) = (  -0.0000000  -0.3750000   0.0000000), wk =   0.0039062
        k(   42) = (   0.0000000  -0.3750000   0.1250000), wk =   0.0039062
        k(   43) = (  -0.0000000  -0.3750000   0.2500000), wk =   0.0039062
        k(   44) = (  -0.0000000  -0.3750000   0.3750000), wk =   0.0039062
        k(   45) = (   0.0000000  -0.3750000  -0.5000000), wk =   0.0039062
        k(   46) = (  -0.0000000  -0.3750000  -0.3750000), wk =   0.0039062
        k(   47) = (   0.0000000  -0.3750000  -0.2500000), wk =   0.0039062
        k(   48) = (   0.0000000  -0.3750000  -0.1250000), wk =   0.0039062
        k(   49) = (  -0.0000000  -0.2500000   0.0000000), wk =   0.0039062
        k(   50) = (  -0.0000000  -0.2500000   0.1250000), wk =   0.0039062
        k(   51) = (  -0.0000000  -0.2500000   0.2500000), wk =   0.0039062
        k(   52) = (  -0.0000000  -0.2500000   0.3750000), wk =   0.0039062
        k(   53) = (  -0.0000000  -0.2500000  -0.5000000), wk =   0.0039062
        k(   54) = (  -0.0000000  -0.2500000  -0.3750000), wk =   0.0039062
        k(   55) = (  -0.0000000  -0.2500000  -0.2500000), wk =   0.0039062
        k(   56) = (  -0.0000000  -0.2500000  -0.1250000), wk =   0.0039062
        k(   57) = (  -0.0000000  -0.1250000   0.0000000), wk =   0.0039062
        k(   58) = (  -0.0000000  -0.1250000   0.1250000), wk =   0.0039062
        k(   59) = (  -0.0000000  -0.1250000   0.2500000), wk =   0.0039062
        k(   60) = (  -0.0000000  -0.1250000   0.3750000), wk =   0.0039062
        k(   61) = (  -0.0000000  -0.1250000  -0.5000000), wk =   0.0039062
        k(   62) = (   0.0000000  -0.1250000  -0.3750000), wk =   0.0039062
        k(   63) = (  -0.0000000  -0.1250000  -0.2500000), wk =   0.0039062
        k(   64) = (  -0.0000000  -0.1250000  -0.1250000), wk =   0.0039062
        k(   65) = (   0.1250000   0.0000000   0.0000000), wk =   0.0039062
        k(   66) = (   0.1250000  -0.0000000   0.1250000), wk =   0.0039062
        k(   67) = (   0.1250000  -0.0000000   0.2500000), wk =   0.0039062
        k(   68) = (   0.1250000   0.0000000   0.3750000), wk =   0.0039062
        k(   69) = (   0.1250000  -0.0000000  -0.5000000), wk =   0.0039062
        k(   70) = (   0.1250000  -0.0000000  -0.3750000), wk =   0.0039062
        k(   71) = (   0.1250000   0.0000000  -0.2500000), wk =   0.0039062
        k(   72) = (   0.1250000   0.0000000  -0.1250000), wk =   0.0039062
        k(   73) = (   0.1250000   0.1250000   0.0000000), wk =   0.0039062
        k(   74) = (   0.1250000   0.1250000   0.1250000), wk =   0.0039062
        k(   75) = (   0.1250000   0.1250000   0.2500000), wk =   0.0039062
        k(   76) = (   0.1250000   0.1250000   0.3750000), wk =   0.0039062
        k(   77) = (   0.1250000   0.1250000  -0.5000000), wk =   0.0039062
        k(   78) = (   0.1250000   0.1250000  -0.3750000), wk =   0.0039062
        k(   79) = (   0.1250000   0.1250000  -0.2500000), wk =   0.0039062
        k(   80) = (   0.1250000   0.1250000  -0.1250000), wk =   0.0039062
        k(   81) = (   0.1250000   0.2500000  -0.0000000), wk =   0.0039062
        k(   82) = (   0.1250000   0.2500000   0.1250000), wk =   0.0039062
        k(   83) = (   0.1250000   0.2500000   0.2500000), wk =   0.0039062
        k(   84) = (   0.1250000   0.2500000   0.3750000), wk =   0.0039062
        k(   85) = (   0.1250000   0.2500000  -0.5000000), wk =   0.0039062
        k(   86) = (   0.1250000   0.2500000  -0.3750000), wk =   0.0039062
        k(   87) = (   0.1250000   0.2500000  -0.2500000), wk =   0.0039062
        k(   88) = (   0.1250000   0.2500000  -0.1250000), wk =   0.0039062
        k(   89) = (   0.1250000   0.3750000  -0.0000000), wk =   0.0039062
        k(   90) = (   0.1250000   0.3750000   0.1250000), wk =   0.0039062
        k(   91) = (   0.1250000   0.3750000   0.2500000), wk =   0.0039062
        k(   92) = (   0.1250000   0.3750000   0.3750000), wk =   0.0039062
        k(   93) = (   0.1250000   0.3750000  -0.5000000), wk =   0.0039062
        k(   94) = (   0.1250000   0.3750000  -0.3750000), wk =   0.0039062
        k(   95) = (   0.1250000   0.3750000  -0.2500000), wk =   0.0039062
        k(   96) = (   0.1250000   0.3750000  -0.1250000), wk =   0.0039062
        k(   97) = (   0.1250000  -0.5000000   0.0000000), wk =   0.0039062
        k(   98) = (   0.1250000  -0.5000000   0.1250000), wk =   0.0039062
        k(   99) = (   0.1250000  -0.5000000   0.2500000), wk =   0.0039062
        k(  100) = (   0.1250000  -0.5000000   0.3750000), wk =   0.0039062
        k(  101) = (   0.1250000  -0.5000000  -0.5000000), wk =   0.0039062
        k(  102) = (   0.1250000  -0.5000000  -0.3750000), wk =   0.0039062
        k(  103) = (   0.1250000  -0.5000000  -0.2500000), wk =   0.0039062
        k(  104) = (   0.1250000  -0.5000000  -0.1250000), wk =   0.0039062
        k(  105) = (   0.1250000  -0.3750000   0.0000000), wk =   0.0039062
        k(  106) = (   0.1250000  -0.3750000   0.1250000), wk =   0.0039062
        k(  107) = (   0.1250000  -0.3750000   0.2500000), wk =   0.0039062
        k(  108) = (   0.1250000  -0.3750000   0.3750000), wk =   0.0039062
        k(  109) = (   0.1250000  -0.3750000  -0.5000000), wk =   0.0039062
        k(  110) = (   0.1250000  -0.3750000  -0.3750000), wk =   0.0039062
        k(  111) = (   0.1250000  -0.3750000  -0.2500000), wk =   0.0039062
        k(  112) = (   0.1250000  -0.3750000  -0.1250000), wk =   0.0039062
        k(  113) = (   0.1250000  -0.2500000   0.0000000), wk =   0.0039062
        k(  114) = (   0.1250000  -0.2500000   0.1250000), wk =   0.0039062
        k(  115) = (   0.1250000  -0.2500000   0.2500000), wk =   0.0039062
        k(  116) = (   0.1250000  -0.2500000   0.3750000), wk =   0.0039062
        k(  117) = (   0.1250000  -0.2500000  -0.5000000), wk =   0.0039062
        k(  118) = (   0.1250000  -0.2500000  -0.3750000), wk =   0.0039062
        k(  119) = (   0.1250000  -0.2500000  -0.2500000), wk =   0.0039062
        k(  120) = (   0.1250000  -0.2500000  -0.1250000), wk =   0.0039062
        k(  121) = (   0.1250000  -0.1250000   0.0000000), wk =   0.0039062
        k(  122) = (   0.1250000  -0.1250000   0.1250000), wk =   0.0039062
        k(  123) = (   0.1250000  -0.1250000   0.2500000), wk =   0.0039062
        k(  124) = (   0.1250000  -0.1250000   0.3750000), wk =   0.0039062
        k(  125) = (   0.1250000  -0.1250000  -0.5000000), wk =   0.0039062
        k(  126) = (   0.1250000  -0.1250000  -0.3750000), wk =   0.0039062
        k(  127) = (   0.1250000  -0.1250000  -0.2500000), wk =   0.0039062
        k(  128) = (   0.1250000  -0.1250000  -0.1250000), wk =   0.0039062
        k(  129) = (   0.2500000   0.0000000   0.0000000), wk =   0.0039062
        k(  130) = (   0.2500000  -0.0000000   0.1250000), wk =   0.0039062
        k(  131) = (   0.2500000  -0.0000000   0.2500000), wk =   0.0039062
        k(  132) = (   0.2500000  -0.0000000   0.3750000), wk =   0.0039062
        k(  133) = (   0.2500000   0.0000000  -0.5000000), wk =   0.0039062
        k(  134) = (   0.2500000   0.0000000  -0.3750000), wk =   0.0039062
        k(  135) = (   0.2500000   0.0000000  -0.2500000), wk =   0.0039062
        k(  136) = (   0.2500000   0.0000000  -0.1250000), wk =   0.0039062
        k(  137) = (   0.2500000   0.1250000   0.0000000), wk =   0.0039062
        k(  138) = (   0.2500000   0.1250000   0.1250000), wk =   0.0039062
        k(  139) = (   0.2500000   0.1250000   0.2500000), wk =   0.0039062
        k(  140) = (   0.2500000   0.1250000   0.3750000), wk =   0.0039062
        k(  141) = (   0.2500000   0.1250000  -0.5000000), wk =   0.0039062
        k(  142) = (   0.2500000   0.1250000  -0.3750000), wk =   0.0039062
        k(  143) = (   0.2500000   0.1250000  -0.2500000), wk =   0.0039062
        k(  144) = (   0.2500000   0.1250000  -0.1250000), wk =   0.0039062
        k(  145) = (   0.2500000   0.2500000   0.0000000), wk =   0.0039062
        k(  146) = (   0.2500000   0.2500000   0.1250000), wk =   0.0039062
        k(  147) = (   0.2500000   0.2500000   0.2500000), wk =   0.0039062
        k(  148) = (   0.2500000   0.2500000   0.3750000), wk =   0.0039062
        k(  149) = (   0.2500000   0.2500000  -0.5000000), wk =   0.0039062
        k(  150) = (   0.2500000   0.2500000  -0.3750000), wk =   0.0039062
        k(  151) = (   0.2500000   0.2500000  -0.2500000), wk =   0.0039062
        k(  152) = (   0.2500000   0.2500000  -0.1250000), wk =   0.0039062
        k(  153) = (   0.2500000   0.3750000  -0.0000000), wk =   0.0039062
        k(  154) = (   0.2500000   0.3750000   0.1250000), wk =   0.0039062
        k(  155) = (   0.2500000   0.3750000   0.2500000), wk =   0.0039062
        k(  156) = (   0.2500000   0.3750000   0.3750000), wk =   0.0039062
        k(  157) = (   0.2500000   0.3750000  -0.5000000), wk =   0.0039062
        k(  158) = (   0.2500000   0.3750000  -0.3750000), wk =   0.0039062
        k(  159) = (   0.2500000   0.3750000  -0.2500000), wk =   0.0039062
        k(  160) = (   0.2500000   0.3750000  -0.1250000), wk =   0.0039062
        k(  161) = (   0.2500000  -0.5000000   0.0000000), wk =   0.0039062
        k(  162) = (   0.2500000  -0.5000000   0.1250000), wk =   0.0039062
        k(  163) = (   0.2500000  -0.5000000   0.2500000), wk =   0.0039062
        k(  164) = (   0.2500000  -0.5000000   0.3750000), wk =   0.0039062
        k(  165) = (   0.2500000  -0.5000000  -0.5000000), wk =   0.0039062
        k(  166) = (   0.2500000  -0.5000000  -0.3750000), wk =   0.0039062
        k(  167) = (   0.2500000  -0.5000000  -0.2500000), wk =   0.0039062
        k(  168) = (   0.2500000  -0.5000000  -0.1250000), wk =   0.0039062
        k(  169) = (   0.2500000  -0.3750000   0.0000000), wk =   0.0039062
        k(  170) = (   0.2500000  -0.3750000   0.1250000), wk =   0.0039062
        k(  171) = (   0.2500000  -0.3750000   0.2500000), wk =   0.0039062
        k(  172) = (   0.2500000  -0.3750000   0.3750000), wk =   0.0039062
        k(  173) = (   0.2500000  -0.3750000  -0.5000000), wk =   0.0039062
        k(  174) = (   0.2500000  -0.3750000  -0.3750000), wk =   0.0039062
        k(  175) = (   0.2500000  -0.3750000  -0.2500000), wk =   0.0039062
        k(  176) = (   0.2500000  -0.3750000  -0.1250000), wk =   0.0039062
        k(  177) = (   0.2500000  -0.2500000   0.0000000), wk =   0.0039062
        k(  178) = (   0.2500000  -0.2500000   0.1250000), wk =   0.0039062
        k(  179) = (   0.2500000  -0.2500000   0.2500000), wk =   0.0039062
        k(  180) = (   0.2500000  -0.2500000   0.3750000), wk =   0.0039062
        k(  181) = (   0.2500000  -0.2500000  -0.5000000), wk =   0.0039062
        k(  182) = (   0.2500000  -0.2500000  -0.3750000), wk =   0.0039062
        k(  183) = (   0.2500000  -0.2500000  -0.2500000), wk =   0.0039062
        k(  184) = (   0.2500000  -0.2500000  -0.1250000), wk =   0.0039062
        k(  185) = (   0.2500000  -0.1250000   0.0000000), wk =   0.0039062
        k(  186) = (   0.2500000  -0.1250000   0.1250000), wk =   0.0039062
        k(  187) = (   0.2500000  -0.1250000   0.2500000), wk =   0.0039062
        k(  188) = (   0.2500000  -0.1250000   0.3750000), wk =   0.0039062
        k(  189) = (   0.2500000  -0.1250000  -0.5000000), wk =   0.0039062
        k(  190) = (   0.2500000  -0.1250000  -0.3750000), wk =   0.0039062
        k(  191) = (   0.2500000  -0.1250000  -0.2500000), wk =   0.0039062
        k(  192) = (   0.2500000  -0.1250000  -0.1250000), wk =   0.0039062
        k(  193) = (   0.3750000  -0.0000000   0.0000000), wk =   0.0039062
        k(  194) = (   0.3750000  -0.0000000   0.1250000), wk =   0.0039062
        k(  195) = (   0.3750000  -0.0000000   0.2500000), wk =   0.0039062
        k(  196) = (   0.3750000  -0.0000000   0.3750000), wk =   0.0039062
        k(  197) = (   0.3750000  -0.0000000  -0.5000000), wk =   0.0039062
        k(  198) = (   0.3750000  -0.0000000  -0.3750000), wk =   0.0039062
        k(  199) = (   0.3750000  -0.0000000  -0.2500000), wk =   0.0039062
        k(  200) = (   0.3750000   0.0000000  -0.1250000), wk =   0.0039062
        k(  201) = (   0.3750000   0.1250000   0.0000000), wk =   0.0039062
        k(  202) = (   0.3750000   0.1250000   0.1250000), wk =   0.0039062
        k(  203) = (   0.3750000   0.1250000   0.2500000), wk =   0.0039062
        k(  204) = (   0.3750000   0.1250000   0.3750000), wk =   0.0039062
        k(  205) = (   0.3750000   0.1250000  -0.5000000), wk =   0.0039062
        k(  206) = (   0.3750000   0.1250000  -0.3750000), wk =   0.0039062
        k(  207) = (   0.3750000   0.1250000  -0.2500000), wk =   0.0039062
        k(  208) = (   0.3750000   0.1250000  -0.1250000), wk =   0.0039062
        k(  209) = (   0.3750000   0.2500000  -0.0000000), wk =   0.0039062
        k(  210) = (   0.3750000   0.2500000   0.1250000), wk =   0.0039062
        k(  211) = (   0.3750000   0.2500000   0.2500000), wk =   0.0039062
        k(  212) = (   0.3750000   0.2500000   0.3750000), wk =   0.0039062
        k(  213) = (   0.3750000   0.2500000  -0.5000000), wk =   0.0039062
        k(  214) = (   0.3750000   0.2500000  -0.3750000), wk =   0.0039062
        k(  215) = (   0.3750000   0.2500000  -0.2500000), wk =   0.0039062
        k(  216) = (   0.3750000   0.2500000  -0.1250000), wk =   0.0039062
        k(  217) = (   0.3750000   0.3750000   0.0000000), wk =   0.0039062
        k(  218) = (   0.3750000   0.3750000   0.1250000), wk =   0.0039062
        k(  219) = (   0.3750000   0.3750000   0.2500000), wk =   0.0039062
        k(  220) = (   0.3750000   0.3750000   0.3750000), wk =   0.0039062
        k(  221) = (   0.3750000   0.3750000  -0.5000000), wk =   0.0039062
        k(  222) = (   0.3750000   0.3750000  -0.3750000), wk =   0.0039062
        k(  223) = (   0.3750000   0.3750000  -0.2500000), wk =   0.0039062
        k(  224) = (   0.3750000   0.3750000  -0.1250000), wk =   0.0039062
        k(  225) = (   0.3750000  -0.5000000   0.0000000), wk =   0.0039062
        k(  226) = (   0.3750000  -0.5000000   0.1250000), wk =   0.0039062
        k(  227) = (   0.3750000  -0.5000000   0.2500000), wk =   0.0039062
        k(  228) = (   0.3750000  -0.5000000   0.3750000), wk =   0.0039062
        k(  229) = (   0.3750000  -0.5000000  -0.5000000), wk =   0.0039062
        k(  230) = (   0.3750000  -0.5000000  -0.3750000), wk =   0.0039062
        k(  231) = (   0.3750000  -0.5000000  -0.2500000), wk =   0.0039062
        k(  232) = (   0.3750000  -0.5000000  -0.1250000), wk =   0.0039062
        k(  233) = (   0.3750000  -0.3750000   0.0000000), wk =   0.0039062
        k(  234) = (   0.3750000  -0.3750000   0.1250000), wk =   0.0039062
        k(  235) = (   0.3750000  -0.3750000   0.2500000), wk =   0.0039062
        k(  236) = (   0.3750000  -0.3750000   0.3750000), wk =   0.0039062
        k(  237) = (   0.3750000  -0.3750000  -0.5000000), wk =   0.0039062
        k(  238) = (   0.3750000  -0.3750000  -0.3750000), wk =   0.0039062
        k(  239) = (   0.3750000  -0.3750000  -0.2500000), wk =   0.0039062
        k(  240) = (   0.3750000  -0.3750000  -0.1250000), wk =   0.0039062
        k(  241) = (   0.3750000  -0.2500000   0.0000000), wk =   0.0039062
        k(  242) = (   0.3750000  -0.2500000   0.1250000), wk =   0.0039062
        k(  243) = (   0.3750000  -0.2500000   0.2500000), wk =   0.0039062
        k(  244) = (   0.3750000  -0.2500000   0.3750000), wk =   0.0039062
        k(  245) = (   0.3750000  -0.2500000  -0.5000000), wk =   0.0039062
        k(  246) = (   0.3750000  -0.2500000  -0.3750000), wk =   0.0039062
        k(  247) = (   0.3750000  -0.2500000  -0.2500000), wk =   0.0039062
        k(  248) = (   0.3750000  -0.2500000  -0.1250000), wk =   0.0039062
        k(  249) = (   0.3750000  -0.1250000   0.0000000), wk =   0.0039062
        k(  250) = (   0.3750000  -0.1250000   0.1250000), wk =   0.0039062
        k(  251) = (   0.3750000  -0.1250000   0.2500000), wk =   0.0039062
        k(  252) = (   0.3750000  -0.1250000   0.3750000), wk =   0.0039062
        k(  253) = (   0.3750000  -0.1250000  -0.5000000), wk =   0.0039062
        k(  254) = (   0.3750000  -0.1250000  -0.3750000), wk =   0.0039062
        k(  255) = (   0.3750000  -0.1250000  -0.2500000), wk =   0.0039062
        k(  256) = (   0.3750000  -0.1250000  -0.1250000), wk =   0.0039062
        k(  257) = (  -0.5000000  -0.0000000  -0.0000000), wk =   0.0039062
        k(  258) = (  -0.5000000   0.0000000   0.1250000), wk =   0.0039062
        k(  259) = (  -0.5000000  -0.0000000   0.2500000), wk =   0.0039062
        k(  260) = (  -0.5000000  -0.0000000   0.3750000), wk =   0.0039062
        k(  261) = (  -0.5000000   0.0000000  -0.5000000), wk =   0.0039062
        k(  262) = (  -0.5000000  -0.0000000  -0.3750000), wk =   0.0039062
        k(  263) = (  -0.5000000   0.0000000  -0.2500000), wk =   0.0039062
        k(  264) = (  -0.5000000  -0.0000000  -0.1250000), wk =   0.0039062
        k(  265) = (  -0.5000000   0.1250000  -0.0000000), wk =   0.0039062
        k(  266) = (  -0.5000000   0.1250000   0.1250000), wk =   0.0039062
        k(  267) = (  -0.5000000   0.1250000   0.2500000), wk =   0.0039062
        k(  268) = (  -0.5000000   0.1250000   0.3750000), wk =   0.0039062
        k(  269) = (  -0.5000000   0.1250000  -0.5000000), wk =   0.0039062
        k(  270) = (  -0.5000000   0.1250000  -0.3750000), wk =   0.0039062
        k(  271) = (  -0.5000000   0.1250000  -0.2500000), wk =   0.0039062
        k(  272) = (  -0.5000000   0.1250000  -0.1250000), wk =   0.0039062
        k(  273) = (  -0.5000000   0.2500000   0.0000000), wk =   0.0039062
        k(  274) = (  -0.5000000   0.2500000   0.1250000), wk =   0.0039062
        k(  275) = (  -0.5000000   0.2500000   0.2500000), wk =   0.0039062
        k(  276) = (  -0.5000000   0.2500000   0.3750000), wk =   0.0039062
        k(  277) = (  -0.5000000   0.2500000  -0.5000000), wk =   0.0039062
        k(  278) = (  -0.5000000   0.2500000  -0.3750000), wk =   0.0039062
        k(  279) = (  -0.5000000   0.2500000  -0.2500000), wk =   0.0039062
        k(  280) = (  -0.5000000   0.2500000  -0.1250000), wk =   0.0039062
        k(  281) = (  -0.5000000   0.3750000   0.0000000), wk =   0.0039062
        k(  282) = (  -0.5000000   0.3750000   0.1250000), wk =   0.0039062
        k(  283) = (  -0.5000000   0.3750000   0.2500000), wk =   0.0039062
        k(  284) = (  -0.5000000   0.3750000   0.3750000), wk =   0.0039062
        k(  285) = (  -0.5000000   0.3750000  -0.5000000), wk =   0.0039062
        k(  286) = (  -0.5000000   0.3750000  -0.3750000), wk =   0.0039062
        k(  287) = (  -0.5000000   0.3750000  -0.2500000), wk =   0.0039062
        k(  288) = (  -0.5000000   0.3750000  -0.1250000), wk =   0.0039062
        k(  289) = (  -0.5000000  -0.5000000   0.0000000), wk =   0.0039062
        k(  290) = (  -0.5000000  -0.5000000   0.1250000), wk =   0.0039062
        k(  291) = (  -0.5000000  -0.5000000   0.2500000), wk =   0.0039062
        k(  292) = (  -0.5000000  -0.5000000   0.3750000), wk =   0.0039062
        k(  293) = (  -0.5000000  -0.5000000  -0.5000000), wk =   0.0039062
        k(  294) = (  -0.5000000  -0.5000000  -0.3750000), wk =   0.0039062
        k(  295) = (  -0.5000000  -0.5000000  -0.2500000), wk =   0.0039062
        k(  296) = (  -0.5000000  -0.5000000  -0.1250000), wk =   0.0039062
        k(  297) = (  -0.5000000  -0.3750000   0.0000000), wk =   0.0039062
        k(  298) = (  -0.5000000  -0.3750000   0.1250000), wk =   0.0039062
        k(  299) = (  -0.5000000  -0.3750000   0.2500000), wk =   0.0039062
        k(  300) = (  -0.5000000  -0.3750000   0.3750000), wk =   0.0039062
        k(  301) = (  -0.5000000  -0.3750000  -0.5000000), wk =   0.0039062
        k(  302) = (  -0.5000000  -0.3750000  -0.3750000), wk =   0.0039062
        k(  303) = (  -0.5000000  -0.3750000  -0.2500000), wk =   0.0039062
        k(  304) = (  -0.5000000  -0.3750000  -0.1250000), wk =   0.0039062
        k(  305) = (  -0.5000000  -0.2500000  -0.0000000), wk =   0.0039062
        k(  306) = (  -0.5000000  -0.2500000   0.1250000), wk =   0.0039062
        k(  307) = (  -0.5000000  -0.2500000   0.2500000), wk =   0.0039062
        k(  308) = (  -0.5000000  -0.2500000   0.3750000), wk =   0.0039062
        k(  309) = (  -0.5000000  -0.2500000  -0.5000000), wk =   0.0039062
        k(  310) = (  -0.5000000  -0.2500000  -0.3750000), wk =   0.0039062
        k(  311) = (  -0.5000000  -0.2500000  -0.2500000), wk =   0.0039062
        k(  312) = (  -0.5000000  -0.2500000  -0.1250000), wk =   0.0039062
        k(  313) = (  -0.5000000  -0.1250000   0.0000000), wk =   0.0039062
        k(  314) = (  -0.5000000  -0.1250000   0.1250000), wk =   0.0039062
        k(  315) = (  -0.5000000  -0.1250000   0.2500000), wk =   0.0039062
        k(  316) = (  -0.5000000  -0.1250000   0.3750000), wk =   0.0039062
        k(  317) = (  -0.5000000  -0.1250000  -0.5000000), wk =   0.0039062
        k(  318) = (  -0.5000000  -0.1250000  -0.3750000), wk =   0.0039062
        k(  319) = (  -0.5000000  -0.1250000  -0.2500000), wk =   0.0039062
        k(  320) = (  -0.5000000  -0.1250000  -0.1250000), wk =   0.0039062
        k(  321) = (  -0.3750000   0.0000000  -0.0000000), wk =   0.0039062
        k(  322) = (  -0.3750000  -0.0000000   0.1250000), wk =   0.0039062
        k(  323) = (  -0.3750000   0.0000000   0.2500000), wk =   0.0039062
        k(  324) = (  -0.3750000   0.0000000   0.3750000), wk =   0.0039062
        k(  325) = (  -0.3750000   0.0000000  -0.5000000), wk =   0.0039062
        k(  326) = (  -0.3750000   0.0000000  -0.3750000), wk =   0.0039062
        k(  327) = (  -0.3750000   0.0000000  -0.2500000), wk =   0.0039062
        k(  328) = (  -0.3750000   0.0000000  -0.1250000), wk =   0.0039062
        k(  329) = (  -0.3750000   0.1250000  -0.0000000), wk =   0.0039062
        k(  330) = (  -0.3750000   0.1250000   0.1250000), wk =   0.0039062
        k(  331) = (  -0.3750000   0.1250000   0.2500000), wk =   0.0039062
        k(  332) = (  -0.3750000   0.1250000   0.3750000), wk =   0.0039062
        k(  333) = (  -0.3750000   0.1250000  -0.5000000), wk =   0.0039062
        k(  334) = (  -0.3750000   0.1250000  -0.3750000), wk =   0.0039062
        k(  335) = (  -0.3750000   0.1250000  -0.2500000), wk =   0.0039062
        k(  336) = (  -0.3750000   0.1250000  -0.1250000), wk =   0.0039062
        k(  337) = (  -0.3750000   0.2500000  -0.0000000), wk =   0.0039062
        k(  338) = (  -0.3750000   0.2500000   0.1250000), wk =   0.0039062
        k(  339) = (  -0.3750000   0.2500000   0.2500000), wk =   0.0039062
        k(  340) = (  -0.3750000   0.2500000   0.3750000), wk =   0.0039062
        k(  341) = (  -0.3750000   0.2500000  -0.5000000), wk =   0.0039062
        k(  342) = (  -0.3750000   0.2500000  -0.3750000), wk =   0.0039062
        k(  343) = (  -0.3750000   0.2500000  -0.2500000), wk =   0.0039062
        k(  344) = (  -0.3750000   0.2500000  -0.1250000), wk =   0.0039062
        k(  345) = (  -0.3750000   0.3750000   0.0000000), wk =   0.0039062
        k(  346) = (  -0.3750000   0.3750000   0.1250000), wk =   0.0039062
        k(  347) = (  -0.3750000   0.3750000   0.2500000), wk =   0.0039062
        k(  348) = (  -0.3750000   0.3750000   0.3750000), wk =   0.0039062
        k(  349) = (  -0.3750000   0.3750000  -0.5000000), wk =   0.0039062
        k(  350) = (  -0.3750000   0.3750000  -0.3750000), wk =   0.0039062
        k(  351) = (  -0.3750000   0.3750000  -0.2500000), wk =   0.0039062
        k(  352) = (  -0.3750000   0.3750000  -0.1250000), wk =   0.0039062
        k(  353) = (  -0.3750000  -0.5000000   0.0000000), wk =   0.0039062
        k(  354) = (  -0.3750000  -0.5000000   0.1250000), wk =   0.0039062
        k(  355) = (  -0.3750000  -0.5000000   0.2500000), wk =   0.0039062
        k(  356) = (  -0.3750000  -0.5000000   0.3750000), wk =   0.0039062
        k(  357) = (  -0.3750000  -0.5000000  -0.5000000), wk =   0.0039062
        k(  358) = (  -0.3750000  -0.5000000  -0.3750000), wk =   0.0039062
        k(  359) = (  -0.3750000  -0.5000000  -0.2500000), wk =   0.0039062
        k(  360) = (  -0.3750000  -0.5000000  -0.1250000), wk =   0.0039062
        k(  361) = (  -0.3750000  -0.3750000  -0.0000000), wk =   0.0039062
        k(  362) = (  -0.3750000  -0.3750000   0.1250000), wk =   0.0039062
        k(  363) = (  -0.3750000  -0.3750000   0.2500000), wk =   0.0039062
        k(  364) = (  -0.3750000  -0.3750000   0.3750000), wk =   0.0039062
        k(  365) = (  -0.3750000  -0.3750000  -0.5000000), wk =   0.0039062
        k(  366) = (  -0.3750000  -0.3750000  -0.3750000), wk =   0.0039062
        k(  367) = (  -0.3750000  -0.3750000  -0.2500000), wk =   0.0039062
        k(  368) = (  -0.3750000  -0.3750000  -0.1250000), wk =   0.0039062
        k(  369) = (  -0.3750000  -0.2500000   0.0000000), wk =   0.0039062
        k(  370) = (  -0.3750000  -0.2500000   0.1250000), wk =   0.0039062
        k(  371) = (  -0.3750000  -0.2500000   0.2500000), wk =   0.0039062
        k(  372) = (  -0.3750000  -0.2500000   0.3750000), wk =   0.0039062
        k(  373) = (  -0.3750000  -0.2500000  -0.5000000), wk =   0.0039062
        k(  374) = (  -0.3750000  -0.2500000  -0.3750000), wk =   0.0039062
        k(  375) = (  -0.3750000  -0.2500000  -0.2500000), wk =   0.0039062
        k(  376) = (  -0.3750000  -0.2500000  -0.1250000), wk =   0.0039062
        k(  377) = (  -0.3750000  -0.1250000  -0.0000000), wk =   0.0039062
        k(  378) = (  -0.3750000  -0.1250000   0.1250000), wk =   0.0039062
        k(  379) = (  -0.3750000  -0.1250000   0.2500000), wk =   0.0039062
        k(  380) = (  -0.3750000  -0.1250000   0.3750000), wk =   0.0039062
        k(  381) = (  -0.3750000  -0.1250000  -0.5000000), wk =   0.0039062
        k(  382) = (  -0.3750000  -0.1250000  -0.3750000), wk =   0.0039062
        k(  383) = (  -0.3750000  -0.1250000  -0.2500000), wk =   0.0039062
        k(  384) = (  -0.3750000  -0.1250000  -0.1250000), wk =   0.0039062
        k(  385) = (  -0.2500000  -0.0000000  -0.0000000), wk =   0.0039062
        k(  386) = (  -0.2500000  -0.0000000   0.1250000), wk =   0.0039062
        k(  387) = (  -0.2500000  -0.0000000   0.2500000), wk =   0.0039062
        k(  388) = (  -0.2500000  -0.0000000   0.3750000), wk =   0.0039062
        k(  389) = (  -0.2500000   0.0000000  -0.5000000), wk =   0.0039062
        k(  390) = (  -0.2500000   0.0000000  -0.3750000), wk =   0.0039062
        k(  391) = (  -0.2500000   0.0000000  -0.2500000), wk =   0.0039062
        k(  392) = (  -0.2500000   0.0000000  -0.1250000), wk =   0.0039062
        k(  393) = (  -0.2500000   0.1250000   0.0000000), wk =   0.0039062
        k(  394) = (  -0.2500000   0.1250000   0.1250000), wk =   0.0039062
        k(  395) = (  -0.2500000   0.1250000   0.2500000), wk =   0.0039062
        k(  396) = (  -0.2500000   0.1250000   0.3750000), wk =   0.0039062
        k(  397) = (  -0.2500000   0.1250000  -0.5000000), wk =   0.0039062
        k(  398) = (  -0.2500000   0.1250000  -0.3750000), wk =   0.0039062
        k(  399) = (  -0.2500000   0.1250000  -0.2500000), wk =   0.0039062
        k(  400) = (  -0.2500000   0.1250000  -0.1250000), wk =   0.0039062
        k(  401) = (  -0.2500000   0.2500000  -0.0000000), wk =   0.0039062
        k(  402) = (  -0.2500000   0.2500000   0.1250000), wk =   0.0039062
        k(  403) = (  -0.2500000   0.2500000   0.2500000), wk =   0.0039062
        k(  404) = (  -0.2500000   0.2500000   0.3750000), wk =   0.0039062
        k(  405) = (  -0.2500000   0.2500000  -0.5000000), wk =   0.0039062
        k(  406) = (  -0.2500000   0.2500000  -0.3750000), wk =   0.0039062
        k(  407) = (  -0.2500000   0.2500000  -0.2500000), wk =   0.0039062
        k(  408) = (  -0.2500000   0.2500000  -0.1250000), wk =   0.0039062
        k(  409) = (  -0.2500000   0.3750000   0.0000000), wk =   0.0039062
        k(  410) = (  -0.2500000   0.3750000   0.1250000), wk =   0.0039062
        k(  411) = (  -0.2500000   0.3750000   0.2500000), wk =   0.0039062
        k(  412) = (  -0.2500000   0.3750000   0.3750000), wk =   0.0039062
        k(  413) = (  -0.2500000   0.3750000  -0.5000000), wk =   0.0039062
        k(  414) = (  -0.2500000   0.3750000  -0.3750000), wk =   0.0039062
        k(  415) = (  -0.2500000   0.3750000  -0.2500000), wk =   0.0039062
        k(  416) = (  -0.2500000   0.3750000  -0.1250000), wk =   0.0039062
        k(  417) = (  -0.2500000  -0.5000000   0.0000000), wk =   0.0039062
        k(  418) = (  -0.2500000  -0.5000000   0.1250000), wk =   0.0039062
        k(  419) = (  -0.2500000  -0.5000000   0.2500000), wk =   0.0039062
        k(  420) = (  -0.2500000  -0.5000000   0.3750000), wk =   0.0039062
        k(  421) = (  -0.2500000  -0.5000000  -0.5000000), wk =   0.0039062
        k(  422) = (  -0.2500000  -0.5000000  -0.3750000), wk =   0.0039062
        k(  423) = (  -0.2500000  -0.5000000  -0.2500000), wk =   0.0039062
        k(  424) = (  -0.2500000  -0.5000000  -0.1250000), wk =   0.0039062
        k(  425) = (  -0.2500000  -0.3750000   0.0000000), wk =   0.0039062
        k(  426) = (  -0.2500000  -0.3750000   0.1250000), wk =   0.0039062
        k(  427) = (  -0.2500000  -0.3750000   0.2500000), wk =   0.0039062
        k(  428) = (  -0.2500000  -0.3750000   0.3750000), wk =   0.0039062
        k(  429) = (  -0.2500000  -0.3750000  -0.5000000), wk =   0.0039062
        k(  430) = (  -0.2500000  -0.3750000  -0.3750000), wk =   0.0039062
        k(  431) = (  -0.2500000  -0.3750000  -0.2500000), wk =   0.0039062
        k(  432) = (  -0.2500000  -0.3750000  -0.1250000), wk =   0.0039062
        k(  433) = (  -0.2500000  -0.2500000   0.0000000), wk =   0.0039062
        k(  434) = (  -0.2500000  -0.2500000   0.1250000), wk =   0.0039062
        k(  435) = (  -0.2500000  -0.2500000   0.2500000), wk =   0.0039062
        k(  436) = (  -0.2500000  -0.2500000   0.3750000), wk =   0.0039062
        k(  437) = (  -0.2500000  -0.2500000  -0.5000000), wk =   0.0039062
        k(  438) = (  -0.2500000  -0.2500000  -0.3750000), wk =   0.0039062
        k(  439) = (  -0.2500000  -0.2500000  -0.2500000), wk =   0.0039062
        k(  440) = (  -0.2500000  -0.2500000  -0.1250000), wk =   0.0039062
        k(  441) = (  -0.2500000  -0.1250000  -0.0000000), wk =   0.0039062
        k(  442) = (  -0.2500000  -0.1250000   0.1250000), wk =   0.0039062
        k(  443) = (  -0.2500000  -0.1250000   0.2500000), wk =   0.0039062
        k(  444) = (  -0.2500000  -0.1250000   0.3750000), wk =   0.0039062
        k(  445) = (  -0.2500000  -0.1250000  -0.5000000), wk =   0.0039062
        k(  446) = (  -0.2500000  -0.1250000  -0.3750000), wk =   0.0039062
        k(  447) = (  -0.2500000  -0.1250000  -0.2500000), wk =   0.0039062
        k(  448) = (  -0.2500000  -0.1250000  -0.1250000), wk =   0.0039062
        k(  449) = (  -0.1250000  -0.0000000  -0.0000000), wk =   0.0039062
        k(  450) = (  -0.1250000  -0.0000000   0.1250000), wk =   0.0039062
        k(  451) = (  -0.1250000  -0.0000000   0.2500000), wk =   0.0039062
        k(  452) = (  -0.1250000   0.0000000   0.3750000), wk =   0.0039062
        k(  453) = (  -0.1250000  -0.0000000  -0.5000000), wk =   0.0039062
        k(  454) = (  -0.1250000  -0.0000000  -0.3750000), wk =   0.0039062
        k(  455) = (  -0.1250000   0.0000000  -0.2500000), wk =   0.0039062
        k(  456) = (  -0.1250000   0.0000000  -0.1250000), wk =   0.0039062
        k(  457) = (  -0.1250000   0.1250000  -0.0000000), wk =   0.0039062
        k(  458) = (  -0.1250000   0.1250000   0.1250000), wk =   0.0039062
        k(  459) = (  -0.1250000   0.1250000   0.2500000), wk =   0.0039062
        k(  460) = (  -0.1250000   0.1250000   0.3750000), wk =   0.0039062
        k(  461) = (  -0.1250000   0.1250000  -0.5000000), wk =   0.0039062
        k(  462) = (  -0.1250000   0.1250000  -0.3750000), wk =   0.0039062
        k(  463) = (  -0.1250000   0.1250000  -0.2500000), wk =   0.0039062
        k(  464) = (  -0.1250000   0.1250000  -0.1250000), wk =   0.0039062
        k(  465) = (  -0.1250000   0.2500000  -0.0000000), wk =   0.0039062
        k(  466) = (  -0.1250000   0.2500000   0.1250000), wk =   0.0039062
        k(  467) = (  -0.1250000   0.2500000   0.2500000), wk =   0.0039062
        k(  468) = (  -0.1250000   0.2500000   0.3750000), wk =   0.0039062
        k(  469) = (  -0.1250000   0.2500000  -0.5000000), wk =   0.0039062
        k(  470) = (  -0.1250000   0.2500000  -0.3750000), wk =   0.0039062
        k(  471) = (  -0.1250000   0.2500000  -0.2500000), wk =   0.0039062
        k(  472) = (  -0.1250000   0.2500000  -0.1250000), wk =   0.0039062
        k(  473) = (  -0.1250000   0.3750000   0.0000000), wk =   0.0039062
        k(  474) = (  -0.1250000   0.3750000   0.1250000), wk =   0.0039062
        k(  475) = (  -0.1250000   0.3750000   0.2500000), wk =   0.0039062
        k(  476) = (  -0.1250000   0.3750000   0.3750000), wk =   0.0039062
        k(  477) = (  -0.1250000   0.3750000  -0.5000000), wk =   0.0039062
        k(  478) = (  -0.1250000   0.3750000  -0.3750000), wk =   0.0039062
        k(  479) = (  -0.1250000   0.3750000  -0.2500000), wk =   0.0039062
        k(  480) = (  -0.1250000   0.3750000  -0.1250000), wk =   0.0039062
        k(  481) = (  -0.1250000  -0.5000000   0.0000000), wk =   0.0039062
        k(  482) = (  -0.1250000  -0.5000000   0.1250000), wk =   0.0039062
        k(  483) = (  -0.1250000  -0.5000000   0.2500000), wk =   0.0039062
        k(  484) = (  -0.1250000  -0.5000000   0.3750000), wk =   0.0039062
        k(  485) = (  -0.1250000  -0.5000000  -0.5000000), wk =   0.0039062
        k(  486) = (  -0.1250000  -0.5000000  -0.3750000), wk =   0.0039062
        k(  487) = (  -0.1250000  -0.5000000  -0.2500000), wk =   0.0039062
[...]

    -2.5956  -0.7920   8.3719  13.3750  16.8787  17.2847  18.5593  19.1210

     occupation numbers 
     1.0000   1.0000   1.0000   0.0000   0.0000   0.0000   0.0000   0.0000

          k =-0.1282 0.0613-0.1320 (   834 PWs)   bands (ev):

    -3.0756   0.3129   6.4029  15.7165  16.3821  18.0003  18.1344  19.4230

     occupation numbers 
     1.0000   1.0000   1.0000   0.0000   0.0000   0.0000   0.0000   0.0000

          k =-0.1290 0.0649-0.0642 (   841 PWs)   bands (ev):

    -3.3543   1.5531   4.6587  15.9998  17.7567  17.9059  18.7529  19.5708

     occupation numbers 
     1.0000   1.0000   1.0000   0.0000   0.0000   0.0000   0.0000   0.0000

          k =-0.1382 0.1993 0.0059 (   838 PWs)   bands (ev):

    -2.6066   3.0246   4.6391  11.5749  15.7354  15.9242  18.3557  19.6102

     occupation numbers 
     1.0000   1.0000   1.0000   0.0000   0.0000   0.0000   0.0000   0.0000

          k =-0.1389 0.2028 0.0737 (   843 PWs)   bands (ev):

    -2.4522   1.8655   6.0758  11.5112  15.6771  16.3960  17.2158  19.3806

     occupation numbers 
     1.0000   1.0000   1.0000   0.0000   0.0000   0.0000   0.0000   0.0000

          k =-0.1397 0.2063 0.1415 (   846 PWs)   bands (ev):

    -2.0967   0.6700   7.9074  11.6243  15.1307  15.6889  16.1858  19.1720

     occupation numbers 
     1.0000   1.0000   1.0000   0.0000   0.0000   0.0000   0.0000   0.0000

          k =-0.1404 0.2099 0.2092 (   843 PWs)   bands (ev):

    -1.5410  -0.3622   9.9198  11.8673  13.2049  14.6810  16.2871  18.5093

     occupation numbers 
     1.0000   1.0000   1.0000   0.0000   0.0000   0.0000   0.0000   0.0000

          k =-0.1352 0.1852-0.2651 (   838 PWs)   bands (ev):

    -1.2079  -0.7870  10.8539  12.0328  12.5363  13.7921  16.7385  17.7227

     occupation numbers 
     1.0000   1.0000   0.0000   0.0000   0.0000   0.0000   0.0000   0.0000

          k =-0.1359 0.1887-0.1974 (   836 PWs)   bands (ev):

    -1.8576   0.1576   8.8250  12.7814  13.1565  14.5032  17.0267  17.4071

     occupation numbers 
     1.0000   1.0000   1.0000   0.0000   0.0000   0.0000   0.0000   0.0000

          k =-0.1367 0.1922-0.1296 (   836 PWs)   bands (ev):

    -2.3086   1.2814   6.9104  12.2376  13.9692  16.1359  17.0990  18.1411

     occupation numbers 
     1.0000   1.0000   1.0000   0.0000   0.0000   0.0000   0.0000   0.0000

          k =-0.1374 0.1958-0.0618 (   840 PWs)   bands (ev):

    -2.5586   2.5230   5.2250  11.8187  14.9201  15.9591  18.6739  18.9744

     occupation numbers 
     1.0000   1.0000   1.0000   0.0000   0.0000   0.0000   0.0000   0.0000

          k =-0.1466 0.3302 0.0083 (   836 PWs)   bands (ev):

    -1.0358   4.4188   6.2377   7.4383  12.1957  14.0486  14.8207  18.4820

     occupation numbers 
     1.0000   1.0000   1.0000   1.0000   0.0000   0.0000   0.0000   0.0000

          k =-0.1474 0.3337 0.0761 (   848 PWs)   bands (ev):

    -0.8556   3.2193   7.3490   7.7996  12.5375  14.0053  14.3905  18.4730

     occupation numbers 
     1.0000   1.0000   1.0000   1.0000   0.0000   0.0000   0.0000   0.0000

          k =-0.1481 0.3372 0.1438 (   845 PWs)   bands (ev):

    -0.4752   2.0547   7.5212   9.5572  11.5917  14.1426  15.2326  17.2671

     occupation numbers 
     1.0000   1.0000   1.0000   1.0000   0.0000   0.0000   0.0000   0.0000

          k =-0.1489 0.3408 0.2116 (   849 PWs)   bands (ev):

     0.1032   1.0565   7.8606  10.2594  11.7870  13.9179  14.9193  16.6353

     occupation numbers 
     1.0000   1.0000   1.0000   0.9743   0.0000   0.0000   0.0000   0.0000

          k =-0.1436 0.3161-0.2627 (   847 PWs)   bands (ev):

     0.2432   0.8787   8.3762   9.3843  12.1270  13.7556  15.2403  16.0209

     occupation numbers 
     1.0000   1.0000   1.0000   1.0000   0.0000   0.0000   0.0000   0.0000

          k =-0.1444 0.3196-0.1950 (   843 PWs)   bands (ev):

    -0.3743   1.8413   8.5791   9.0010  10.2562  14.9887  15.6453  16.5156

     occupation numbers 
     1.0000   1.0000   1.0000   1.0000   0.9772   0.0000   0.0000   0.0000

          k =-0.1451 0.3232-0.1272 (   839 PWs)   bands (ev):

    -0.7949   2.9784   7.7938   8.3400  10.1219  14.6004  16.4537  17.6799

     occupation numbers 
     1.0000   1.0000   1.0000   1.0000   0.9999   0.0000   0.0000   0.0000

          k =-0.1459 0.3267-0.0595 (   835 PWs)   bands (ev):

    -1.0157   4.2092   6.4527   7.6908  11.1140  14.2466  16.1613  17.7260

     occupation numbers 
     1.0000   1.0000   1.0000   1.0000   0.0000   0.0000   0.0000   0.0000

          k =-0.0874-0.5861-0.0084 (   839 PWs)   bands (ev):

     1.2232   3.8406   6.5249   8.3286   9.0988  11.4383  12.9975  17.6570

     occupation numbers 
     1.0000   1.0000   1.0000   1.0000   1.0000   0.0000   0.0000   0.0000

          k =-0.0881-0.5826 0.0594 (   839 PWs)   bands (ev):

     1.4230   3.8138   5.3416   8.9729   9.9001  11.4953  13.0300  17.6370

     occupation numbers 
     1.0000   1.0000   1.0000   1.0000   1.0000   0.0000   0.0000   0.0000

          k =-0.0889-0.5791 0.1272 (   844 PWs)   bands (ev):

     1.8188   3.8371   4.3775   7.8733  11.6400  12.7579  13.3752  16.7432

     occupation numbers 
     1.0000   1.0000   1.0000   1.0000   0.0000   0.0000   0.0000   0.0000

          k =-0.0896-0.5756 0.1949 (   845 PWs)   bands (ev):

     2.4050   3.1481   4.4912   6.7720  13.2052  13.6530  14.5121  15.7847

     occupation numbers 
     1.0000   1.0000   1.0000   1.0000   0.0000   0.0000   0.0000   0.0000

          k =-0.0844-0.6002-0.2794 (   843 PWs)   bands (ev):

     2.3797   3.2019   5.0398   5.8188  13.4421  14.2224  14.5946  15.9041

     occupation numbers 
     1.0000   1.0000   1.0000   1.0000   0.0000   0.0000   0.0000   0.0000

          k =-0.0851-0.5967-0.2117 (   845 PWs)   bands (ev):

     1.8037   4.1645   5.0394   5.7933  11.8783  13.9979  14.7126  16.4933

     occupation numbers 
     1.0000   1.0000   1.0000   1.0000   0.0000   0.0000   0.0000   0.0000

          k =-0.0859-0.5932-0.1439 (   840 PWs)   bands (ev):

     1.4147   4.4491   5.3021   6.7063  10.1391  13.4957  14.4256  15.9671

     occupation numbers 
     1.0000   1.0000   1.0000   1.0000   0.9998   0.0000   0.0000   0.0000

          k =-0.0866-0.5897-0.0761 (   840 PWs)   bands (ev):

     1.2206   4.0494   6.5324   7.5997   8.7679  12.8069  13.1697  16.8034

     occupation numbers 
     1.0000   1.0000   1.0000   1.0000   1.0000   0.0000   0.0000   0.0000

          k =-0.0958-0.4552-0.0060 (   844 PWs)   bands (ev):

     0.8033   4.3693   6.2609   7.9374   9.3744  11.8745  12.7643  17.3941

     occupation numbers 
     1.0000   1.0000   1.0000   1.0000   1.0000   0.0000   0.0000   0.0000

          k =-0.0966-0.4517 0.0618 (   841 PWs)   bands (ev):

     0.8206   4.6080   6.0345   7.7968   8.6878  12.4157  13.6876  17.2225

     occupation numbers 
     1.0000   1.0000   1.0000   1.0000   1.0000   0.0000   0.0000   0.0000

          k =-0.0973-0.4482 0.1295 (   840 PWs)   bands (ev):

     1.0362   4.7976   5.0320   7.0665   9.9640  12.7003  15.1247  16.4901

     occupation numbers 
     1.0000   1.0000   1.0000   1.0000   1.0000   0.0000   0.0000   0.0000

          k =-0.0981-0.4447 0.1973 (   841 PWs)   bands (ev):

     1.4481   3.6673   5.6422   6.1876  11.7468  13.0976  15.0405  16.8526

     occupation numbers 
     1.0000   1.0000   1.0000   1.0000   0.0000   0.0000   0.0000   0.0000

          k =-0.0928-0.4693-0.2770 (   844 PWs)   bands (ev):

     2.0507   2.7136   5.4647   6.4359  13.4871  13.6185  14.3461  15.4518

     occupation numbers 
     1.0000   1.0000   1.0000   1.0000   0.0000   0.0000   0.0000   0.0000

          k =-0.0936-0.4658-0.2093 (   840 PWs)   bands (ev):

     1.9371   2.8483   4.9322   7.3973  13.1980  13.5445  13.9431  15.0841

     occupation numbers 
     1.0000   1.0000   1.0000   1.0000   0.0000   0.0000   0.0000   0.0000

          k =-0.0943-0.4623-0.1415 (   839 PWs)   bands (ev):

     1.3634   3.7758   4.6349   8.4832  11.3169  12.9344  13.0923  15.6385

     occupation numbers 
     1.0000   1.0000   1.0000   1.0000   0.0000   0.0000   0.0000   0.0000

          k =-0.0951-0.4588-0.0737 (   837 PWs)   bands (ev):

     0.9845   4.2790   5.1217   9.2899   9.7221  11.7516  12.7729  16.5670

     occupation numbers 
     1.0000   1.0000   1.0000   1.0000   1.0000   0.0000   0.0000   0.0000

          k =-0.1043-0.3243-0.0036 (   838 PWs)   bands (ev):

    -1.3533   4.2322   5.8367   8.1002  12.3651  13.0792  15.6253  17.6958

     occupation numbers 
     1.0000   1.0000   1.0000   1.0000   0.0000   0.0000   0.0000   0.0000

          k =-0.1051-0.3208 0.0642 (   839 PWs)   bands (ev):

    -1.3101   3.7800   6.3450   8.3621  11.5555  12.8815  16.7042  17.6381

     occupation numbers 
     1.0000   1.0000   1.0000   1.0000   0.0000   0.0000   0.0000   0.0000

          k =-0.1058-0.3173 0.1319 (   839 PWs)   bands (ev):

    -1.0661   2.5414   7.9245   8.8545  10.6156  13.0763  16.1900  17.6415

     occupation numbers 
     1.0000   1.0000   1.0000   1.0000   0.0000   0.0000   0.0000   0.0000

          k =-0.1066-0.3138 0.1997 (   840 PWs)   bands (ev):

    -0.6220   1.4192   9.1780   9.5149  10.3605  13.4396  15.2910  15.7577

     occupation numbers 
     1.0000   1.0000   1.0000   1.0000   0.4244   0.0000   0.0000   0.0000

          k =-0.1013-0.3384-0.2747 (   840 PWs)   bands (ev):

     0.0191   0.4753   8.9473  10.0692  12.1397  13.2274  14.3128  14.5534

     occupation numbers 
     1.0000   1.0000   1.0000   1.0000   0.0000   0.0000   0.0000   0.0000

          k =-0.1021-0.3349-0.2069 (   844 PWs)   bands (ev):

    -0.2799   0.8561   8.4650  10.6800  11.5575  13.6407  14.4597  14.9101

     occupation numbers 
     1.0000   1.0000   1.0000   0.0000   0.0000   0.0000   0.0000   0.0000

          k =-0.1028-0.3314-0.1391 (   842 PWs)   bands (ev):

    -0.8371   1.8777   8.1493   9.1002  12.1032  13.4612  15.2506  16.0769

     occupation numbers 
     1.0000   1.0000   1.0000   1.0000   0.0000   0.0000   0.0000   0.0000

          k =-0.1036-0.3279-0.0714 (   838 PWs)   bands (ev):

    -1.1954   3.0625   7.2848   8.0407  12.5317  13.6030  14.8741  16.9841

     occupation numbers 
     1.0000   1.0000   1.0000   1.0000   0.0000   0.0000   0.0000   0.0000

          k =-0.1128-0.1934-0.0012 (   833 PWs)   bands (ev):

    -2.7993   2.9175   4.3778  12.3768  13.6804  16.5335  18.4377  18.8772

     occupation numbers 
     1.0000   1.0000   1.0000   0.0000   0.0000   0.0000   0.0000   0.0000

          k =-0.1135-0.1899 0.0665 (   838 PWs)   bands (ev):

    -2.7281   2.2017   5.2193  12.6344  13.7501  15.6028  17.9281  18.6418

     occupation numbers 
     1.0000   1.0000   1.0000   0.0000   0.0000   0.0000   0.0000   0.0000

          k =-0.1143-0.1864 0.1343 (   840 PWs)   bands (ev):

    -2.4548   0.9618   6.9455  13.0497  13.9303  14.7340  16.5995  17.0300

     occupation numbers 
     1.0000   1.0000   1.0000   0.0000   0.0000   0.0000   0.0000   0.0000

          k =-0.1150-0.1829 0.2021 (   838 PWs)   bands (ev):

    -1.9803  -0.1445   8.8864  13.3504  13.8011  14.1324  14.9149  16.1564

     occupation numbers 
     1.0000   1.0000   1.0000   0.0000   0.0000   0.0000   0.0000   0.0000

          k =-0.1098-0.2075-0.2723 (   846 PWs)   bands (ev):

    -1.3079  -1.0686  10.9476  11.6502  13.2207  14.4685  15.2367  15.5121

     occupation numbers 
     1.0000   1.0000   0.0000   0.0000   0.0000   0.0000   0.0000   0.0000

          k =-0.1105-0.2040-0.2045 (   846 PWs)   bands (ev):

    -1.8014  -0.4390   9.5192  12.5064  13.3135  14.6734  15.7210  15.9748

     occupation numbers 
     1.0000   1.0000   1.0000   0.0000   0.0000   0.0000   0.0000   0.0000

          k =-0.1113-0.2005-0.1367 (   838 PWs)   bands (ev):

    -2.3349   0.6151   7.5170  12.3773  13.9366  15.7724  16.6261  16.8620

     occupation numbers 
     1.0000   1.0000   1.0000   0.0000   0.0000   0.0000   0.0000   0.0000

          k =-0.1120-0.1969-0.0690 (   835 PWs)   bands (ev):

    -2.6681   1.8269   5.7063  12.2926  13.7611  17.0737  17.6168  17.9209

     occupation numbers 
     1.0000   1.0000   1.0000   0.0000   0.0000   0.0000   0.0000   0.0000

     the Fermi energy is    10.3527 ev

!    total energy              =     -15.77904676 Ry
     estimated scf accuracy    <       0.00813710 Ry
     smearing contrib. (-TS)   =      -0.00013067 Ry
     internal energy E=F+TS    =     -15.77891609 Ry

     The total energy is F=E-TS. E is the sum of the following terms:
     one-electron contribution =       8.96429851 Ry
     hartree contribution      =       0.09097319 Ry
     xc contribution           =      -4.88550295 Ry
     ewald contribution        =     -19.94868484 Ry

     convergence has been achieved in   1 iterations

     Forces acting on atoms (cartesian axes, Ry/au):

     atom    1 type  1   force =     0.00363300   -0.00121697   -0.00027495
     atom    2 type  1   force =    -0.00363300    0.00121697    0.00027495
     The non-local contrib.  to forces
     atom    1 type  1   force =    -0.00093077   -0.00643465   -0.00790686
     atom    2 type  1   force =     0.00092424    0.00642655    0.00791727
     The ionic contribution  to forces
     atom    1 type  1   force =    -0.02554342    0.02586917    0.01310379
     atom    2 type  1   force =     0.02554342   -0.02586917   -0.01310379
     The local contribution  to forces
     atom    1 type  1   force =     0.03113600   -0.02173626   -0.00448886
     atom    2 type  1   force =    -0.03113366    0.02173886    0.00448139
     The core correction contribution to forces
     atom    1 type  1   force =     0.00000000    0.00000000    0.00000000
     atom    2 type  1   force =     0.00000000    0.00000000    0.00000000
     The Hubbard contrib.    to forces
     atom    1 type  1   force =     0.00000000    0.00000000    0.00000000
     atom    2 type  1   force =     0.00000000    0.00000000    0.00000000
     The SCF correction term to forces
     atom    1 type  1   force =    -0.00103098    0.00108198   -0.00098135
     atom    2 type  1   force =     0.00103085   -0.00108204    0.00098175

     Total force =     0.005432     Total SCF correction =     0.002529
     SCF correction compared to forces is large: reduce conv_thr to get better values


     Computing stress (Cartesian axis) and pressure

          total   stress  (Ry/bohr**3)                   (kbar)     P=      -40.78
  -0.00022600   0.00012746  -0.00000773          -33.25       18.75       -1.14
   0.00012746  -0.00023660   0.00002944           18.75      -34.81        4.33
  -0.00000773   0.00002944  -0.00036913           -1.14        4.33      -54.30

     kinetic stress (kbar)   3086.75     21.57     -2.73
                               21.57   3129.00      0.80
                               -2.73      0.80   3120.94

     local   stress (kbar)  -1311.82    127.43     16.74
                              127.43   -720.63    -68.57
                               16.74    -68.57   -437.04

     nonloc. stress (kbar)   3782.62    -26.54     -6.15
                              -26.54   3676.76     15.58
                               -6.15     15.58   3650.83

     hartree stress (kbar)     45.53     -2.38      0.72
                               -2.38     21.63      1.58
                                0.72      1.58      0.56

     exc-cor stress (kbar)  -1105.41      0.00      0.00
                                0.00  -1105.41      0.00
                                0.00      0.00  -1105.41

     corecor stress (kbar)      0.00      0.00      0.00
                                0.00      0.00      0.00
                                0.00      0.00      0.00

     ewald   stress (kbar)  -4530.93   -101.32     -9.72
                             -101.32  -5036.16     54.95
                               -9.72     54.95  -5284.18

     hubbard stress (kbar)      0.00      0.00      0.00
                                0.00      0.00      0.00
                                0.00      0.00      0.00

     DFT-D   stress (kbar)      0.00      0.00      0.00
                                0.00      0.00      0.00
                                0.00      0.00      0.00

     XDM     stress (kbar)      0.00      0.00      0.00
                                0.00      0.00      0.00
                                0.00      0.00      0.00

     dft-nl  stress (kbar)      0.00      0.00      0.00
                                0.00      0.00      0.00
                                0.00      0.00      0.00

     TS-vdW  stress (kbar)      0.00      0.00      0.00
                                0.00      0.00      0.00
                                0.00      0.00      0.00

     MDB     stress (kbar)      0.00      0.00      0.00
                                0.00      0.00      0.00
                                0.00      0.00      0.00

     3D-RISM stress (kbar)      0.00      0.00      0.00
                                0.00      0.00      0.00
                                0.00      0.00      0.00


     Writing all to output data dir ../tmp/Si/Si.save/ :
     XML data file, charge density, pseudopotentials, collected wavefunctions

     init_run     :      1.72s CPU      1.79s WALL (       1 calls)
     electrons    :      9.65s CPU      9.96s WALL (       1 calls)
     forces       :      0.15s CPU      0.15s WALL (       1 calls)
     stress       :      1.81s CPU      1.81s WALL (       1 calls)

     Called by init_run:
     wfcinit      :      1.43s CPU      1.49s WALL (       1 calls)
     wfcinit:atom :      0.06s CPU      0.06s WALL (     512 calls)
     wfcinit:wfcr :      1.10s CPU      1.15s WALL (     512 calls)
     potinit      :      0.01s CPU      0.01s WALL (       1 calls)
     hinit0       :      0.24s CPU      0.24s WALL (       1 calls)

     Called by electrons:
     c_bands      :      8.55s CPU      8.82s WALL (       2 calls)
     sum_band     :      1.09s CPU      1.13s WALL (       2 calls)
     v_of_rho     :      0.00s CPU      0.00s WALL (       2 calls)
     v_h          :      0.00s CPU      0.00s WALL (       2 calls)
     v_xc         :      0.00s CPU      0.00s WALL (       2 calls)
     mix_rho      :      0.00s CPU      0.00s WALL (       2 calls)

     Called by c_bands:
     init_us_2    :      0.46s CPU      0.47s WALL (    3584 calls)
     cegterg      :      8.31s CPU      8.57s WALL (    1024 calls)

     Called by sum_band:
     sum_band:wei :      0.00s CPU      0.00s WALL (       2 calls)
     sum_band:loo :      1.09s CPU      1.12s WALL (       2 calls)
     sum_band:buf :      0.02s CPU      0.02s WALL (    1024 calls)
     sum_band:ini :      0.14s CPU      0.15s WALL (    1024 calls)

     Called by *egterg:
     cdiaghg      :      0.44s CPU      0.47s WALL (    4672 calls)
     cegterg:over :      0.24s CPU      0.25s WALL (    4160 calls)
     cegterg:upda :      0.21s CPU      0.21s WALL (    4160 calls)
     cegterg:last :      0.26s CPU      0.26s WALL (    3112 calls)
     h_psi        :      8.00s CPU      8.25s WALL (    5696 calls)
     g_psi        :      0.08s CPU      0.09s WALL (    4160 calls)

     Called by h_psi:
     h_psi:calbec :      0.14s CPU      0.15s WALL (    5696 calls)
     vloc_psi     :      7.62s CPU      7.86s WALL (    5696 calls)
     add_vuspsi   :      0.14s CPU      0.14s WALL (    5696 calls)

     General routines
     calbec       :      0.20s CPU      0.20s WALL (    8256 calls)
     fft          :      0.22s CPU      0.22s WALL (      11 calls)
     ffts         :      0.00s CPU      0.00s WALL (       2 calls)
     fftw         :      7.03s CPU      7.25s WALL (   73130 calls)


     PWSCF        :     13.41s CPU     13.89s WALL


   This run was terminated on:  19: 0:34   6May2024            

=------------------------------------------------------------------------------=
   JOB DONE.
=------------------------------------------------------------------------------=
