
     Program PWSCF v.7.3.1 starts on  6May2024 at 19: 0:42 

     This program is part of the open-source Quantum ESPRESSO suite
     for quantum simulation of materials; please cite
         "P. Giannozzi et al., J. Phys.:Condens. Matter 21 395502 (2009);
         "P. Giannozzi et al., J. Phys.:Condens. Matter 29 465901 (2017);
         "P. Giannozzi et al., J. Chem. Phys. 152 154105 (2020);
          URL http://www.quantum-espresso.org", 
     in publications or presentations arising from this work. More details at
     http://www.quantum-espresso.org/quote

     Serial version
     1926 MiB available memory on the printing compute node when the environment starts

     Reading input from Si6.pw.in

     Current dimensions of program PWSCF are:
     Max number of different atomic species (ntypx) = 10
     Max number of k-points (npk) =  40000
     Max angular momentum in pseudopotentials (lmaxx) =  4


     G-vector sticks info
     --------------------
     sticks:   dense  smooth     PW     G-vecs:    dense   smooth      PW
     Sum         297     297    109                 6965     6965    1515

     Using Slab Decomposition



     bravais-lattice index     =            0
     lattice parameter (alat)  =       5.1504  a.u.
     unit-cell volume          =     203.4246 (a.u.)^3
     number of atoms/cell      =            2
     number of atomic types    =            1
     number of electrons       =         8.00
     number of Kohn-Sham states=            8
     kinetic-energy cutoff     =      40.0000  Ry
     charge density cutoff     =     160.0000  Ry
     scf convergence threshold =      2.0E-02
     mixing beta               =       0.1000
     number of iterations used =            8  plain     mixing
     Exchange-correlation=  SLA  PZ   NOGX NOGC
                           (   1   1   0   0   0   0   0)

     celldm(1)=   5.150448  celldm(2)=   0.000000  celldm(3)=   0.000000
     celldm(4)=   0.000000  celldm(5)=   0.000000  celldm(6)=   0.000000

     crystal axes: (cart. coord. in units of alat)
               a(1) = (   0.998939  -0.036332  -0.028293 )  
               a(2) = (  -0.439325   0.887722  -0.020249 )  
               a(3) = (   0.059252  -0.044732   1.709701 )  

     reciprocal axes: (cart. coord. in units 2 pi/alat)
               b(1) = (  1.018754  0.503667 -0.022129 )  
               b(2) = (  0.042570  1.148198  0.028566 )  
               b(3) = (  0.017363  0.021933  0.584870 )  


     PseudoPot. # 1 for Si read from file:
     ../pseudo/Si.pz-vbc.UPF
     MD5 check sum: 6dfa03ddd5817404712e03e4d12deb78
     Pseudo is Norm-conserving, Zval =  4.0
     Generated by new atomic code, or converted to UPF format
     Using radial grid of  431 points,  2 beta functions with: 
                l(1) =   0
                l(2) =   1

     atomic species   valence    mass     pseudopotential
     Si                4.00    28.08600     Si( 1.00)

     No symmetry found


                                    s                        frac. trans.

      isym =  1     identity                                     

 cryst.   s( 1) = (     1          0          0      )
                  (     0          1          0      )
                  (     0          0          1      )

 cart.    s( 1) = (  1.0000000 -0.0000000  0.0000000 )
                  (  0.0000000  1.0000000 -0.0000000 )
                  (  0.0000000  0.0000000  1.0000000 )


   Cartesian axes

     site n.     atom                  positions (alat units)
         1        Si     tau(   1) = (   0.0549092   0.5685208   0.4044952  )
         2        Si     tau(   2) = (   0.5639568   0.2381366   1.2566642  )

   Crystallographic axes

     site n.     atom                  positions (cryst. coord.)
         1        Si     tau(   1) = (  0.3333333  0.6666667  0.2500000  )
         2        Si     tau(   2) = (  0.6666667  0.3333333  0.7500000  )

     number of k points=   512  Fermi-Dirac smearing, width (Ry)=  0.0019
                       cart. coord. in units 2pi/alat
        k(    1) = (   0.0000000   0.0000000   0.0000000), wk =   0.0039062
        k(    2) = (   0.0021704   0.0027417   0.0731087), wk =   0.0039062
        k(    3) = (   0.0043407   0.0054834   0.1462174), wk =   0.0039062
        k(    4) = (   0.0065111   0.0082250   0.2193262), wk =   0.0039062
        k(    5) = (  -0.0086815  -0.0109667  -0.2924349), wk =   0.0039062
        k(    6) = (  -0.0065111  -0.0082250  -0.2193262), wk =   0.0039062
        k(    7) = (  -0.0043407  -0.0054834  -0.1462174), wk =   0.0039062
        k(    8) = (  -0.0021704  -0.0027417  -0.0731087), wk =   0.0039062
        k(    9) = (   0.0053212   0.1435247   0.0035707), wk =   0.0039062
        k(   10) = (   0.0074916   0.1462664   0.0766795), wk =   0.0039062
        k(   11) = (   0.0096620   0.1490081   0.1497882), wk =   0.0039062
        k(   12) = (   0.0118323   0.1517498   0.2228969), wk =   0.0039062
        k(   13) = (  -0.0033603   0.1325580  -0.2888641), wk =   0.0039062
        k(   14) = (  -0.0011899   0.1352997  -0.2157554), wk =   0.0039062
        k(   15) = (   0.0009805   0.1380414  -0.1426467), wk =   0.0039062
        k(   16) = (   0.0031509   0.1407831  -0.0695380), wk =   0.0039062
        k(   17) = (   0.0106425   0.2870495   0.0071415), wk =   0.0039062
        k(   18) = (   0.0128128   0.2897912   0.0802502), wk =   0.0039062
        k(   19) = (   0.0149832   0.2925329   0.1533589), wk =   0.0039062
        k(   20) = (   0.0171536   0.2952745   0.2264676), wk =   0.0039062
        k(   21) = (   0.0019610   0.2760828  -0.2852934), wk =   0.0039062
        k(   22) = (   0.0041314   0.2788245  -0.2121847), wk =   0.0039062
        k(   23) = (   0.0063017   0.2815661  -0.1390759), wk =   0.0039062
        k(   24) = (   0.0084721   0.2843078  -0.0659672), wk =   0.0039062
        k(   25) = (   0.0159637   0.4305742   0.0107122), wk =   0.0039062
        k(   26) = (   0.0181341   0.4333159   0.0838210), wk =   0.0039062
        k(   27) = (   0.0203044   0.4360576   0.1569297), wk =   0.0039062
        k(   28) = (   0.0224748   0.4387993   0.2300384), wk =   0.0039062
        k(   29) = (   0.0072822   0.4196075  -0.2817226), wk =   0.0039062
        k(   30) = (   0.0094526   0.4223492  -0.2086139), wk =   0.0039062
        k(   31) = (   0.0116230   0.4250909  -0.1355052), wk =   0.0039062
        k(   32) = (   0.0137933   0.4278326  -0.0623965), wk =   0.0039062
        k(   33) = (  -0.0212849  -0.5740990  -0.0142830), wk =   0.0039062
        k(   34) = (  -0.0191146  -0.5713573   0.0588257), wk =   0.0039062
        k(   35) = (  -0.0169442  -0.5686156   0.1319345), wk =   0.0039062
        k(   36) = (  -0.0147738  -0.5658740   0.2050432), wk =   0.0039062
        k(   37) = (  -0.0299664  -0.5850657  -0.3067178), wk =   0.0039062
        k(   38) = (  -0.0277960  -0.5823240  -0.2336091), wk =   0.0039062
        k(   39) = (  -0.0256257  -0.5795824  -0.1605004), wk =   0.0039062
        k(   40) = (  -0.0234553  -0.5768407  -0.0873917), wk =   0.0039062
        k(   41) = (  -0.0159637  -0.4305742  -0.0107122), wk =   0.0039062
        k(   42) = (  -0.0137933  -0.4278326   0.0623965), wk =   0.0039062
        k(   43) = (  -0.0116230  -0.4250909   0.1355052), wk =   0.0039062
        k(   44) = (  -0.0094526  -0.4223492   0.2086139), wk =   0.0039062
        k(   45) = (  -0.0246452  -0.4415410  -0.3031471), wk =   0.0039062
        k(   46) = (  -0.0224748  -0.4387993  -0.2300384), wk =   0.0039062
        k(   47) = (  -0.0203044  -0.4360576  -0.1569297), wk =   0.0039062
        k(   48) = (  -0.0181341  -0.4333159  -0.0838210), wk =   0.0039062
        k(   49) = (  -0.0106425  -0.2870495  -0.0071415), wk =   0.0039062
        k(   50) = (  -0.0084721  -0.2843078   0.0659672), wk =   0.0039062
        k(   51) = (  -0.0063017  -0.2815661   0.1390759), wk =   0.0039062
        k(   52) = (  -0.0041314  -0.2788245   0.2121847), wk =   0.0039062
        k(   53) = (  -0.0193240  -0.2980162  -0.2995764), wk =   0.0039062
        k(   54) = (  -0.0171536  -0.2952745  -0.2264676), wk =   0.0039062
        k(   55) = (  -0.0149832  -0.2925329  -0.1533589), wk =   0.0039062
        k(   56) = (  -0.0128128  -0.2897912  -0.0802502), wk =   0.0039062
        k(   57) = (  -0.0053212  -0.1435247  -0.0035707), wk =   0.0039062
        k(   58) = (  -0.0031509  -0.1407831   0.0695380), wk =   0.0039062
        k(   59) = (  -0.0009805  -0.1380414   0.1426467), wk =   0.0039062
        k(   60) = (   0.0011899  -0.1352997   0.2157554), wk =   0.0039062
        k(   61) = (  -0.0140027  -0.1544915  -0.2960056), wk =   0.0039062
        k(   62) = (  -0.0118323  -0.1517498  -0.2228969), wk =   0.0039062
        k(   63) = (  -0.0096620  -0.1490081  -0.1497882), wk =   0.0039062
        k(   64) = (  -0.0074916  -0.1462664  -0.0766795), wk =   0.0039062
        k(   65) = (   0.1273442   0.0629584  -0.0027661), wk =   0.0039062
        k(   66) = (   0.1295146   0.0657001   0.0703426), wk =   0.0039062
        k(   67) = (   0.1316850   0.0684418   0.1434514), wk =   0.0039062
        k(   68) = (   0.1338554   0.0711834   0.2165601), wk =   0.0039062
        k(   69) = (   0.1186628   0.0519917  -0.2952009), wk =   0.0039062
        k(   70) = (   0.1208331   0.0547334  -0.2220922), wk =   0.0039062
        k(   71) = (   0.1230035   0.0574751  -0.1489835), wk =   0.0039062
        k(   72) = (   0.1251739   0.0602167  -0.0758748), wk =   0.0039062
        k(   73) = (   0.1326655   0.2064832   0.0008047), wk =   0.0039062
        k(   74) = (   0.1348358   0.2092248   0.0739134), wk =   0.0039062
        k(   75) = (   0.1370062   0.2119665   0.1470221), wk =   0.0039062
        k(   76) = (   0.1391766   0.2147082   0.2201308), wk =   0.0039062
        k(   77) = (   0.1239840   0.1955164  -0.2916302), wk =   0.0039062
        k(   78) = (   0.1261544   0.1982581  -0.2185215), wk =   0.0039062
        k(   79) = (   0.1283247   0.2009998  -0.1454128), wk =   0.0039062
        k(   80) = (   0.1304951   0.2037415  -0.0723040), wk =   0.0039062
        k(   81) = (   0.1379867   0.3500079   0.0043754), wk =   0.0039062
        k(   82) = (   0.1401571   0.3527496   0.0774841), wk =   0.0039062
        k(   83) = (   0.1423275   0.3554913   0.1505929), wk =   0.0039062
        k(   84) = (   0.1444978   0.3582329   0.2237016), wk =   0.0039062
        k(   85) = (   0.1293052   0.3390412  -0.2880595), wk =   0.0039062
        k(   86) = (   0.1314756   0.3417829  -0.2149507), wk =   0.0039062
        k(   87) = (   0.1336460   0.3445245  -0.1418420), wk =   0.0039062
        k(   88) = (   0.1358163   0.3472662  -0.0687333), wk =   0.0039062
        k(   89) = (   0.1433079   0.4935327   0.0079462), wk =   0.0039062
        k(   90) = (   0.1454783   0.4962743   0.0810549), wk =   0.0039062
        k(   91) = (   0.1476487   0.4990160   0.1541636), wk =   0.0039062
        k(   92) = (   0.1498191   0.5017577   0.2272723), wk =   0.0039062
        k(   93) = (   0.1346265   0.4825659  -0.2844887), wk =   0.0039062
        k(   94) = (   0.1367968   0.4853076  -0.2113800), wk =   0.0039062
        k(   95) = (   0.1389672   0.4880493  -0.1382713), wk =   0.0039062
        k(   96) = (   0.1411376   0.4907910  -0.0651626), wk =   0.0039062
        k(   97) = (   0.1060593  -0.5111406  -0.0170490), wk =   0.0039062
        k(   98) = (   0.1082297  -0.5083989   0.0560597), wk =   0.0039062
        k(   99) = (   0.1104001  -0.5056572   0.1291684), wk =   0.0039062
        k(  100) = (   0.1125704  -0.5029155   0.2022771), wk =   0.0039062
        k(  101) = (   0.0973778  -0.5221073  -0.3094839), wk =   0.0039062
        k(  102) = (   0.0995482  -0.5193656  -0.2363752), wk =   0.0039062
        k(  103) = (   0.1017186  -0.5166239  -0.1632665), wk =   0.0039062
        k(  104) = (   0.1038889  -0.5138823  -0.0901578), wk =   0.0039062
        k(  105) = (   0.1113805  -0.3676158  -0.0134783), wk =   0.0039062
        k(  106) = (   0.1135509  -0.3648742   0.0596304), wk =   0.0039062
        k(  107) = (   0.1157213  -0.3621325   0.1327391), wk =   0.0039062
        k(  108) = (   0.1178917  -0.3593908   0.2058479), wk =   0.0039062
        k(  109) = (   0.1026991  -0.3785826  -0.3059132), wk =   0.0039062
        k(  110) = (   0.1048694  -0.3758409  -0.2328045), wk =   0.0039062
        k(  111) = (   0.1070398  -0.3730992  -0.1596957), wk =   0.0039062
        k(  112) = (   0.1092102  -0.3703575  -0.0865870), wk =   0.0039062
        k(  113) = (   0.1167018  -0.2240911  -0.0099076), wk =   0.0039062
        k(  114) = (   0.1188721  -0.2213494   0.0632012), wk =   0.0039062
        k(  115) = (   0.1210425  -0.2186077   0.1363099), wk =   0.0039062
        k(  116) = (   0.1232129  -0.2158660   0.2094186), wk =   0.0039062
        k(  117) = (   0.1080203  -0.2350578  -0.3023424), wk =   0.0039062
        k(  118) = (   0.1101907  -0.2323161  -0.2292337), wk =   0.0039062
        k(  119) = (   0.1123610  -0.2295744  -0.1561250), wk =   0.0039062
        k(  120) = (   0.1145314  -0.2268328  -0.0830163), wk =   0.0039062
        k(  121) = (   0.1220230  -0.0805663  -0.0063368), wk =   0.0039062
        k(  122) = (   0.1241934  -0.0778247   0.0667719), wk =   0.0039062
        k(  123) = (   0.1263638  -0.0750830   0.1398806), wk =   0.0039062
        k(  124) = (   0.1285341  -0.0723413   0.2129893), wk =   0.0039062
        k(  125) = (   0.1133415  -0.0915331  -0.2987717), wk =   0.0039062
        k(  126) = (   0.1155119  -0.0887914  -0.2256630), wk =   0.0039062
        k(  127) = (   0.1176823  -0.0860497  -0.1525543), wk =   0.0039062
        k(  128) = (   0.1198526  -0.0833080  -0.0794455), wk =   0.0039062
        k(  129) = (   0.2546885   0.1259168  -0.0055321), wk =   0.0039062
        k(  130) = (   0.2568589   0.1286585   0.0675766), wk =   0.0039062
        k(  131) = (   0.2590292   0.1314002   0.1406853), wk =   0.0039062
        k(  132) = (   0.2611996   0.1341419   0.2137940), wk =   0.0039062
        k(  133) = (   0.2460070   0.1149501  -0.2979670), wk =   0.0039062
        k(  134) = (   0.2481774   0.1176918  -0.2248583), wk =   0.0039062
        k(  135) = (   0.2503477   0.1204335  -0.1517496), wk =   0.0039062
        k(  136) = (   0.2525181   0.1231751  -0.0786409), wk =   0.0039062
        k(  137) = (   0.2600097   0.2694416  -0.0019614), wk =   0.0039062
        k(  138) = (   0.2621801   0.2721833   0.0711473), wk =   0.0039062
        k(  139) = (   0.2643505   0.2749249   0.1442560), wk =   0.0039062
        k(  140) = (   0.2665208   0.2776666   0.2173648), wk =   0.0039062
        k(  141) = (   0.2513282   0.2584749  -0.2943963), wk =   0.0039062
        k(  142) = (   0.2534986   0.2612165  -0.2212876), wk =   0.0039062
        k(  143) = (   0.2556690   0.2639582  -0.1481788), wk =   0.0039062
        k(  144) = (   0.2578393   0.2666999  -0.0750701), wk =   0.0039062
        k(  145) = (   0.2653310   0.4129663   0.0016093), wk =   0.0039062
        k(  146) = (   0.2675013   0.4157080   0.0747181), wk =   0.0039062
        k(  147) = (   0.2696717   0.4184497   0.1478268), wk =   0.0039062
        k(  148) = (   0.2718421   0.4211914   0.2209355), wk =   0.0039062
        k(  149) = (   0.2566495   0.4019996  -0.2908255), wk =   0.0039062
        k(  150) = (   0.2588198   0.4047413  -0.2177168), wk =   0.0039062
        k(  151) = (   0.2609902   0.4074830  -0.1446081), wk =   0.0039062
        k(  152) = (   0.2631606   0.4102246  -0.0714994), wk =   0.0039062
        k(  153) = (   0.2706522   0.5564911   0.0051801), wk =   0.0039062
        k(  154) = (   0.2728226   0.5592327   0.0782888), wk =   0.0039062
        k(  155) = (   0.2749929   0.5619744   0.1513975), wk =   0.0039062
        k(  156) = (   0.2771633   0.5647161   0.2245062), wk =   0.0039062
        k(  157) = (   0.2619707   0.5455244  -0.2872548), wk =   0.0039062
        k(  158) = (   0.2641411   0.5482660  -0.2141461), wk =   0.0039062
        k(  159) = (   0.2663114   0.5510077  -0.1410373), wk =   0.0039062
        k(  160) = (   0.2684818   0.5537494  -0.0679286), wk =   0.0039062
        k(  161) = (   0.2334036  -0.4481822  -0.0198151), wk =   0.0039062
        k(  162) = (   0.2355739  -0.4454405   0.0532936), wk =   0.0039062
        k(  163) = (   0.2377443  -0.4426988   0.1264023), wk =   0.0039062
        k(  164) = (   0.2399147  -0.4399571   0.1995110), wk =   0.0039062
        k(  165) = (   0.2247221  -0.4591489  -0.3122500), wk =   0.0039062
        k(  166) = (   0.2268924  -0.4564072  -0.2391413), wk =   0.0039062
        k(  167) = (   0.2290628  -0.4536655  -0.1660326), wk =   0.0039062
        k(  168) = (   0.2312332  -0.4509238  -0.0929238), wk =   0.0039062
        k(  169) = (   0.2387248  -0.3046574  -0.0162444), wk =   0.0039062
        k(  170) = (   0.2408952  -0.3019157   0.0568643), wk =   0.0039062
        k(  171) = (   0.2430655  -0.2991741   0.1299731), wk =   0.0039062
        k(  172) = (   0.2452359  -0.2964324   0.2030818), wk =   0.0039062
        k(  173) = (   0.2300433  -0.3156241  -0.3086792), wk =   0.0039062
        k(  174) = (   0.2322137  -0.3128825  -0.2355705), wk =   0.0039062
        k(  175) = (   0.2343840  -0.3101408  -0.1624618), wk =   0.0039062
        k(  176) = (   0.2365544  -0.3073991  -0.0893531), wk =   0.0039062
        k(  177) = (   0.2440460  -0.1611327  -0.0126736), wk =   0.0039062
        k(  178) = (   0.2462164  -0.1583910   0.0604351), wk =   0.0039062
        k(  179) = (   0.2483868  -0.1556493   0.1335438), wk =   0.0039062
        k(  180) = (   0.2505571  -0.1529076   0.2066525), wk =   0.0039062
        k(  181) = (   0.2353645  -0.1720994  -0.3051085), wk =   0.0039062
        k(  182) = (   0.2375349  -0.1693577  -0.2319998), wk =   0.0039062
        k(  183) = (   0.2397053  -0.1666160  -0.1588911), wk =   0.0039062
        k(  184) = (   0.2418756  -0.1638744  -0.0857823), wk =   0.0039062
        k(  185) = (   0.2493673  -0.0176079  -0.0091029), wk =   0.0039062
        k(  186) = (   0.2515376  -0.0148662   0.0640058), wk =   0.0039062
        k(  187) = (   0.2537080  -0.0121246   0.1371146), wk =   0.0039062
        k(  188) = (   0.2558784  -0.0093829   0.2102233), wk =   0.0039062
        k(  189) = (   0.2406858  -0.0285746  -0.3015378), wk =   0.0039062
        k(  190) = (   0.2428561  -0.0258330  -0.2284290), wk =   0.0039062
        k(  191) = (   0.2450265  -0.0230913  -0.1553203), wk =   0.0039062
        k(  192) = (   0.2471969  -0.0203496  -0.0822116), wk =   0.0039062
        k(  193) = (   0.3820327   0.1888752  -0.0082982), wk =   0.0039062
        k(  194) = (   0.3842031   0.1916169   0.0648105), wk =   0.0039062
        k(  195) = (   0.3863735   0.1943586   0.1379192), wk =   0.0039062
        k(  196) = (   0.3885438   0.1971003   0.2110279), wk =   0.0039062
        k(  197) = (   0.3733512   0.1779085  -0.3007331), wk =   0.0039062
        k(  198) = (   0.3755216   0.1806502  -0.2276244), wk =   0.0039062
        k(  199) = (   0.3776920   0.1833919  -0.1545156), wk =   0.0039062
        k(  200) = (   0.3798624   0.1861336  -0.0814069), wk =   0.0039062
        k(  201) = (   0.3873540   0.3324000  -0.0047275), wk =   0.0039062
        k(  202) = (   0.3895243   0.3351417   0.0683813), wk =   0.0039062
        k(  203) = (   0.3916947   0.3378833   0.1414900), wk =   0.0039062
        k(  204) = (   0.3938651   0.3406250   0.2145987), wk =   0.0039062
        k(  205) = (   0.3786725   0.3214333  -0.2971623), wk =   0.0039062
        k(  206) = (   0.3808428   0.3241749  -0.2240536), wk =   0.0039062
        k(  207) = (   0.3830132   0.3269166  -0.1509449), wk =   0.0039062
        k(  208) = (   0.3851836   0.3296583  -0.0778362), wk =   0.0039062
        k(  209) = (   0.3926752   0.4759247  -0.0011567), wk =   0.0039062
        k(  210) = (   0.3948456   0.4786664   0.0719520), wk =   0.0039062
        k(  211) = (   0.3970159   0.4814081   0.1450607), wk =   0.0039062
        k(  212) = (   0.3991863   0.4841498   0.2181694), wk =   0.0039062
        k(  213) = (   0.3839937   0.4649580  -0.2935916), wk =   0.0039062
        k(  214) = (   0.3861641   0.4676997  -0.2204829), wk =   0.0039062
        k(  215) = (   0.3883345   0.4704414  -0.1473742), wk =   0.0039062
        k(  216) = (   0.3905048   0.4731831  -0.0742654), wk =   0.0039062
        k(  217) = (   0.3979964   0.6194495   0.0024140), wk =   0.0039062
        k(  218) = (   0.4001668   0.6221912   0.0755227), wk =   0.0039062
        k(  219) = (   0.4023372   0.6249328   0.1486315), wk =   0.0039062
        k(  220) = (   0.4045075   0.6276745   0.2217402), wk =   0.0039062
        k(  221) = (   0.3893149   0.6084828  -0.2900209), wk =   0.0039062
        k(  222) = (   0.3914853   0.6112244  -0.2169121), wk =   0.0039062
        k(  223) = (   0.3936557   0.6139661  -0.1438034), wk =   0.0039062
        k(  224) = (   0.3958261   0.6167078  -0.0706947), wk =   0.0039062
        k(  225) = (   0.3607478  -0.3852238  -0.0225812), wk =   0.0039062
        k(  226) = (   0.3629182  -0.3824821   0.0505275), wk =   0.0039062
        k(  227) = (   0.3650885  -0.3797404   0.1236362), wk =   0.0039062
        k(  228) = (   0.3672589  -0.3769987   0.1967450), wk =   0.0039062
        k(  229) = (   0.3520663  -0.3961905  -0.3150161), wk =   0.0039062
        k(  230) = (   0.3542367  -0.3934488  -0.2419073), wk =   0.0039062
        k(  231) = (   0.3564071  -0.3907071  -0.1687986), wk =   0.0039062
        k(  232) = (   0.3585774  -0.3879654  -0.0956899), wk =   0.0039062
        k(  233) = (   0.3660690  -0.2416990  -0.0190104), wk =   0.0039062
        k(  234) = (   0.3682394  -0.2389573   0.0540983), wk =   0.0039062
        k(  235) = (   0.3704098  -0.2362157   0.1272070), wk =   0.0039062
        k(  236) = (   0.3725801  -0.2334740   0.2003157), wk =   0.0039062
        k(  237) = (   0.3573875  -0.2526657  -0.3114453), wk =   0.0039062
        k(  238) = (   0.3595579  -0.2499240  -0.2383366), wk =   0.0039062
        k(  239) = (   0.3617283  -0.2471824  -0.1652279), wk =   0.0039062
        k(  240) = (   0.3638987  -0.2444407  -0.0921192), wk =   0.0039062
        k(  241) = (   0.3713903  -0.0981743  -0.0154397), wk =   0.0039062
        k(  242) = (   0.3735606  -0.0954326   0.0576690), wk =   0.0039062
        k(  243) = (   0.3757310  -0.0926909   0.1307777), wk =   0.0039062
        k(  244) = (   0.3779014  -0.0899492   0.2038865), wk =   0.0039062
        k(  245) = (   0.3627088  -0.1091410  -0.3078746), wk =   0.0039062
        k(  246) = (   0.3648791  -0.1063993  -0.2347659), wk =   0.0039062
        k(  247) = (   0.3670495  -0.1036576  -0.1616571), wk =   0.0039062
        k(  248) = (   0.3692199  -0.1009159  -0.0885484), wk =   0.0039062
        k(  249) = (   0.3767115   0.0453505  -0.0118690), wk =   0.0039062
        k(  250) = (   0.3788819   0.0480922   0.0612398), wk =   0.0039062
        k(  251) = (   0.3810522   0.0508338   0.1343485), wk =   0.0039062
        k(  252) = (   0.3832226   0.0535755   0.2074572), wk =   0.0039062
        k(  253) = (   0.3680300   0.0343838  -0.3043038), wk =   0.0039062
        k(  254) = (   0.3702004   0.0371254  -0.2311951), wk =   0.0039062
        k(  255) = (   0.3723708   0.0398671  -0.1580864), wk =   0.0039062
        k(  256) = (   0.3745411   0.0426088  -0.0849777), wk =   0.0039062
        k(  257) = (  -0.5093770  -0.2518336   0.0110643), wk =   0.0039062
        k(  258) = (  -0.5072066  -0.2490920   0.0841730), wk =   0.0039062
        k(  259) = (  -0.5050362  -0.2463503   0.1572817), wk =   0.0039062
        k(  260) = (  -0.5028659  -0.2436086   0.2303904), wk =   0.0039062
        k(  261) = (  -0.5180585  -0.2628004  -0.2813706), wk =   0.0039062
        k(  262) = (  -0.5158881  -0.2600587  -0.2082619), wk =   0.0039062
        k(  263) = (  -0.5137177  -0.2573170  -0.1351532), wk =   0.0039062
        k(  264) = (  -0.5115473  -0.2545753  -0.0620444), wk =   0.0039062
        k(  265) = (  -0.5040557  -0.1083089   0.0146350), wk =   0.0039062
        k(  266) = (  -0.5018854  -0.1055672   0.0877437), wk =   0.0039062
        k(  267) = (  -0.4997150  -0.1028255   0.1608525), wk =   0.0039062
        k(  268) = (  -0.4975446  -0.1000839   0.2339612), wk =   0.0039062
        k(  269) = (  -0.5127372  -0.1192756  -0.2777998), wk =   0.0039062
        k(  270) = (  -0.5105669  -0.1165339  -0.2046911), wk =   0.0039062
        k(  271) = (  -0.5083965  -0.1137923  -0.1315824), wk =   0.0039062
        k(  272) = (  -0.5062261  -0.1110506  -0.0584737), wk =   0.0039062
        k(  273) = (  -0.4987345   0.0352159   0.0182058), wk =   0.0039062
        k(  274) = (  -0.4965641   0.0379575   0.0913145), wk =   0.0039062
        k(  275) = (  -0.4943938   0.0406992   0.1644232), wk =   0.0039062
        k(  276) = (  -0.4922234   0.0434409   0.2375319), wk =   0.0039062
        k(  277) = (  -0.5074160   0.0242491  -0.2742291), wk =   0.0039062
        k(  278) = (  -0.5052456   0.0269908  -0.2011204), wk =   0.0039062
        k(  279) = (  -0.5030752   0.0297325  -0.1280117), wk =   0.0039062
        k(  280) = (  -0.5009049   0.0324742  -0.0549029), wk =   0.0039062
        k(  281) = (  -0.4934133   0.1787406   0.0217765), wk =   0.0039062
        k(  282) = (  -0.4912429   0.1814823   0.0948852), wk =   0.0039062
        k(  283) = (  -0.4890725   0.1842240   0.1679939), wk =   0.0039062
        k(  284) = (  -0.4869022   0.1869656   0.2411027), wk =   0.0039062
        k(  285) = (  -0.5020948   0.1677739  -0.2706584), wk =   0.0039062
        k(  286) = (  -0.4999244   0.1705156  -0.1975496), wk =   0.0039062
        k(  287) = (  -0.4977540   0.1732572  -0.1244409), wk =   0.0039062
        k(  288) = (  -0.4955836   0.1759989  -0.0513322), wk =   0.0039062
        k(  289) = (  -0.5306619  -0.8259326  -0.0032187), wk =   0.0039062
        k(  290) = (  -0.5284915  -0.8231910   0.0698900), wk =   0.0039062
        k(  291) = (  -0.5263212  -0.8204493   0.1429987), wk =   0.0039062
        k(  292) = (  -0.5241508  -0.8177076   0.2161075), wk =   0.0039062
        k(  293) = (  -0.5393434  -0.8368994  -0.2956536), wk =   0.0039062
        k(  294) = (  -0.5371730  -0.8341577  -0.2225448), wk =   0.0039062
        k(  295) = (  -0.5350026  -0.8314160  -0.1494361), wk =   0.0039062
        k(  296) = (  -0.5328323  -0.8286743  -0.0763274), wk =   0.0039062
        k(  297) = (  -0.5253407  -0.6824079   0.0003520), wk =   0.0039062
        k(  298) = (  -0.5231703  -0.6796662   0.0734608), wk =   0.0039062
        k(  299) = (  -0.5209999  -0.6769245   0.1465695), wk =   0.0039062
        k(  300) = (  -0.5188296  -0.6741829   0.2196782), wk =   0.0039062
        k(  301) = (  -0.5340222  -0.6933746  -0.2920828), wk =   0.0039062
        k(  302) = (  -0.5318518  -0.6906329  -0.2189741), wk =   0.0039062
        k(  303) = (  -0.5296814  -0.6878913  -0.1458654), wk =   0.0039062
        k(  304) = (  -0.5275110  -0.6851496  -0.0727567), wk =   0.0039062
        k(  305) = (  -0.5200194  -0.5388831   0.0039228), wk =   0.0039062
        k(  306) = (  -0.5178491  -0.5361415   0.0770315), wk =   0.0039062
        k(  307) = (  -0.5156787  -0.5333998   0.1501402), wk =   0.0039062
        k(  308) = (  -0.5135083  -0.5306581   0.2232489), wk =   0.0039062
        k(  309) = (  -0.5287009  -0.5498499  -0.2885121), wk =   0.0039062
        k(  310) = (  -0.5265306  -0.5471082  -0.2154034), wk =   0.0039062
        k(  311) = (  -0.5243602  -0.5443665  -0.1422946), wk =   0.0039062
        k(  312) = (  -0.5221898  -0.5416248  -0.0691859), wk =   0.0039062
        k(  313) = (  -0.5146982  -0.3953584   0.0074935), wk =   0.0039062
        k(  314) = (  -0.5125278  -0.3926167   0.0806023), wk =   0.0039062
        k(  315) = (  -0.5103575  -0.3898750   0.1537110), wk =   0.0039062
        k(  316) = (  -0.5081871  -0.3871334   0.2268197), wk =   0.0039062
        k(  317) = (  -0.5233797  -0.4063251  -0.2849413), wk =   0.0039062
        k(  318) = (  -0.5212093  -0.4035834  -0.2118326), wk =   0.0039062
        k(  319) = (  -0.5190389  -0.4008418  -0.1387239), wk =   0.0039062
        k(  320) = (  -0.5168686  -0.3981001  -0.0656152), wk =   0.0039062
        k(  321) = (  -0.3820327  -0.1888752   0.0082982), wk =   0.0039062
        k(  322) = (  -0.3798624  -0.1861336   0.0814069), wk =   0.0039062
        k(  323) = (  -0.3776920  -0.1833919   0.1545156), wk =   0.0039062
        k(  324) = (  -0.3755216  -0.1806502   0.2276244), wk =   0.0039062
        k(  325) = (  -0.3907142  -0.1998420  -0.2841367), wk =   0.0039062
        k(  326) = (  -0.3885438  -0.1971003  -0.2110279), wk =   0.0039062
        k(  327) = (  -0.3863735  -0.1943586  -0.1379192), wk =   0.0039062
        k(  328) = (  -0.3842031  -0.1916169  -0.0648105), wk =   0.0039062
        k(  329) = (  -0.3767115  -0.0453505   0.0118690), wk =   0.0039062
        k(  330) = (  -0.3745411  -0.0426088   0.0849777), wk =   0.0039062
        k(  331) = (  -0.3723708  -0.0398671   0.1580864), wk =   0.0039062
        k(  332) = (  -0.3702004  -0.0371254   0.2311951), wk =   0.0039062
        k(  333) = (  -0.3853930  -0.0563172  -0.2805659), wk =   0.0039062
        k(  334) = (  -0.3832226  -0.0535755  -0.2074572), wk =   0.0039062
        k(  335) = (  -0.3810522  -0.0508338  -0.1343485), wk =   0.0039062
        k(  336) = (  -0.3788819  -0.0480922  -0.0612398), wk =   0.0039062
        k(  337) = (  -0.3713903   0.0981743   0.0154397), wk =   0.0039062
        k(  338) = (  -0.3692199   0.1009159   0.0885484), wk =   0.0039062
        k(  339) = (  -0.3670495   0.1036576   0.1616571), wk =   0.0039062
        k(  340) = (  -0.3648791   0.1063993   0.2347659), wk =   0.0039062
        k(  341) = (  -0.3800718   0.0872075  -0.2769952), wk =   0.0039062
        k(  342) = (  -0.3779014   0.0899492  -0.2038865), wk =   0.0039062
        k(  343) = (  -0.3757310   0.0926909  -0.1307777), wk =   0.0039062
        k(  344) = (  -0.3735606   0.0954326  -0.0576690), wk =   0.0039062
        k(  345) = (  -0.3660690   0.2416990   0.0190104), wk =   0.0039062
        k(  346) = (  -0.3638987   0.2444407   0.0921192), wk =   0.0039062
        k(  347) = (  -0.3617283   0.2471824   0.1652279), wk =   0.0039062
        k(  348) = (  -0.3595579   0.2499240   0.2383366), wk =   0.0039062
        k(  349) = (  -0.3747505   0.2307323  -0.2734244), wk =   0.0039062
        k(  350) = (  -0.3725801   0.2334740  -0.2003157), wk =   0.0039062
        k(  351) = (  -0.3704098   0.2362157  -0.1272070), wk =   0.0039062
        k(  352) = (  -0.3682394   0.2389573  -0.0540983), wk =   0.0039062
        k(  353) = (  -0.4033177  -0.7629742  -0.0059848), wk =   0.0039062
        k(  354) = (  -0.4011473  -0.7602325   0.0671240), wk =   0.0039062
        k(  355) = (  -0.3989769  -0.7574909   0.1402327), wk =   0.0039062
        k(  356) = (  -0.3968065  -0.7547492   0.2133414), wk =   0.0039062
        k(  357) = (  -0.4119992  -0.7739409  -0.2984196), wk =   0.0039062
        k(  358) = (  -0.4098288  -0.7711993  -0.2253109), wk =   0.0039062
        k(  359) = (  -0.4076584  -0.7684576  -0.1522022), wk =   0.0039062
        k(  360) = (  -0.4054880  -0.7657159  -0.0790935), wk =   0.0039062
        k(  361) = (  -0.3979964  -0.6194495  -0.0024140), wk =   0.0039062
        k(  362) = (  -0.3958261  -0.6167078   0.0706947), wk =   0.0039062
        k(  363) = (  -0.3936557  -0.6139661   0.1438034), wk =   0.0039062
        k(  364) = (  -0.3914853  -0.6112244   0.2169121), wk =   0.0039062
        k(  365) = (  -0.4066779  -0.6304162  -0.2948489), wk =   0.0039062
        k(  366) = (  -0.4045075  -0.6276745  -0.2217402), wk =   0.0039062
        k(  367) = (  -0.4023372  -0.6249328  -0.1486315), wk =   0.0039062
        k(  368) = (  -0.4001668  -0.6221912  -0.0755227), wk =   0.0039062
        k(  369) = (  -0.3926752  -0.4759247   0.0011567), wk =   0.0039062
        k(  370) = (  -0.3905048  -0.4731831   0.0742654), wk =   0.0039062
        k(  371) = (  -0.3883345  -0.4704414   0.1473742), wk =   0.0039062
        k(  372) = (  -0.3861641  -0.4676997   0.2204829), wk =   0.0039062
        k(  373) = (  -0.4013567  -0.4868914  -0.2912781), wk =   0.0039062
        k(  374) = (  -0.3991863  -0.4841498  -0.2181694), wk =   0.0039062
        k(  375) = (  -0.3970159  -0.4814081  -0.1450607), wk =   0.0039062
        k(  376) = (  -0.3948456  -0.4786664  -0.0719520), wk =   0.0039062
        k(  377) = (  -0.3873540  -0.3324000   0.0047275), wk =   0.0039062
        k(  378) = (  -0.3851836  -0.3296583   0.0778362), wk =   0.0039062
        k(  379) = (  -0.3830132  -0.3269166   0.1509449), wk =   0.0039062
        k(  380) = (  -0.3808428  -0.3241749   0.2240536), wk =   0.0039062
        k(  381) = (  -0.3960355  -0.3433667  -0.2877074), wk =   0.0039062
        k(  382) = (  -0.3938651  -0.3406250  -0.2145987), wk =   0.0039062
        k(  383) = (  -0.3916947  -0.3378833  -0.1414900), wk =   0.0039062
        k(  384) = (  -0.3895243  -0.3351417  -0.0683813), wk =   0.0039062
        k(  385) = (  -0.2546885  -0.1259168   0.0055321), wk =   0.0039062
        k(  386) = (  -0.2525181  -0.1231751   0.0786409), wk =   0.0039062
        k(  387) = (  -0.2503477  -0.1204335   0.1517496), wk =   0.0039062
        k(  388) = (  -0.2481774  -0.1176918   0.2248583), wk =   0.0039062
        k(  389) = (  -0.2633700  -0.1368835  -0.2869027), wk =   0.0039062
        k(  390) = (  -0.2611996  -0.1341419  -0.2137940), wk =   0.0039062
        k(  391) = (  -0.2590292  -0.1314002  -0.1406853), wk =   0.0039062
        k(  392) = (  -0.2568589  -0.1286585  -0.0675766), wk =   0.0039062
        k(  393) = (  -0.2493673   0.0176079   0.0091029), wk =   0.0039062
        k(  394) = (  -0.2471969   0.0203496   0.0822116), wk =   0.0039062
        k(  395) = (  -0.2450265   0.0230913   0.1553203), wk =   0.0039062
        k(  396) = (  -0.2428561   0.0258330   0.2284290), wk =   0.0039062
        k(  397) = (  -0.2580487   0.0066412  -0.2833320), wk =   0.0039062
        k(  398) = (  -0.2558784   0.0093829  -0.2102233), wk =   0.0039062
        k(  399) = (  -0.2537080   0.0121246  -0.1371146), wk =   0.0039062
        k(  400) = (  -0.2515376   0.0148662  -0.0640058), wk =   0.0039062
        k(  401) = (  -0.2440460   0.1611327   0.0126736), wk =   0.0039062
        k(  402) = (  -0.2418756   0.1638744   0.0857823), wk =   0.0039062
        k(  403) = (  -0.2397053   0.1666160   0.1588911), wk =   0.0039062
        k(  404) = (  -0.2375349   0.1693577   0.2319998), wk =   0.0039062
        k(  405) = (  -0.2527275   0.1501660  -0.2797612), wk =   0.0039062
        k(  406) = (  -0.2505571   0.1529076  -0.2066525), wk =   0.0039062
        k(  407) = (  -0.2483868   0.1556493  -0.1335438), wk =   0.0039062
        k(  408) = (  -0.2462164   0.1583910  -0.0604351), wk =   0.0039062
        k(  409) = (  -0.2387248   0.3046574   0.0162444), wk =   0.0039062
        k(  410) = (  -0.2365544   0.3073991   0.0893531), wk =   0.0039062
        k(  411) = (  -0.2343840   0.3101408   0.1624618), wk =   0.0039062
        k(  412) = (  -0.2322137   0.3128825   0.2355705), wk =   0.0039062
        k(  413) = (  -0.2474063   0.2936907  -0.2761905), wk =   0.0039062
        k(  414) = (  -0.2452359   0.2964324  -0.2030818), wk =   0.0039062
        k(  415) = (  -0.2430655   0.2991741  -0.1299731), wk =   0.0039062
        k(  416) = (  -0.2408952   0.3019157  -0.0568643), wk =   0.0039062
        k(  417) = (  -0.2759734  -0.7000158  -0.0087508), wk =   0.0039062
        k(  418) = (  -0.2738030  -0.6972741   0.0643579), wk =   0.0039062
        k(  419) = (  -0.2716327  -0.6945325   0.1374666), wk =   0.0039062
        k(  420) = (  -0.2694623  -0.6917908   0.2105753), wk =   0.0039062
        k(  421) = (  -0.2846549  -0.7109825  -0.3011857), wk =   0.0039062
        k(  422) = (  -0.2824845  -0.7082409  -0.2280770), wk =   0.0039062
        k(  423) = (  -0.2803142  -0.7054992  -0.1549683), wk =   0.0039062
        k(  424) = (  -0.2781438  -0.7027575  -0.0818596), wk =   0.0039062
        k(  425) = (  -0.2706522  -0.5564911  -0.0051801), wk =   0.0039062
        k(  426) = (  -0.2684818  -0.5537494   0.0679286), wk =   0.0039062
        k(  427) = (  -0.2663114  -0.5510077   0.1410373), wk =   0.0039062
        k(  428) = (  -0.2641411  -0.5482660   0.2141461), wk =   0.0039062
        k(  429) = (  -0.2793337  -0.5674578  -0.2976150), wk =   0.0039062
        k(  430) = (  -0.2771633  -0.5647161  -0.2245062), wk =   0.0039062
        k(  431) = (  -0.2749929  -0.5619744  -0.1513975), wk =   0.0039062
        k(  432) = (  -0.2728226  -0.5592327  -0.0782888), wk =   0.0039062
        k(  433) = (  -0.2653310  -0.4129663  -0.0016093), wk =   0.0039062
        k(  434) = (  -0.2631606  -0.4102246   0.0714994), wk =   0.0039062
        k(  435) = (  -0.2609902  -0.4074830   0.1446081), wk =   0.0039062
        k(  436) = (  -0.2588198  -0.4047413   0.2177168), wk =   0.0039062
        k(  437) = (  -0.2740124  -0.4239330  -0.2940442), wk =   0.0039062
        k(  438) = (  -0.2718421  -0.4211914  -0.2209355), wk =   0.0039062
        k(  439) = (  -0.2696717  -0.4184497  -0.1478268), wk =   0.0039062
        k(  440) = (  -0.2675013  -0.4157080  -0.0747181), wk =   0.0039062
        k(  441) = (  -0.2600097  -0.2694416   0.0019614), wk =   0.0039062
        k(  442) = (  -0.2578393  -0.2666999   0.0750701), wk =   0.0039062
        k(  443) = (  -0.2556690  -0.2639582   0.1481788), wk =   0.0039062
        k(  444) = (  -0.2534986  -0.2612165   0.2212876), wk =   0.0039062
        k(  445) = (  -0.2686912  -0.2804083  -0.2904735), wk =   0.0039062
        k(  446) = (  -0.2665208  -0.2776666  -0.2173648), wk =   0.0039062
        k(  447) = (  -0.2643505  -0.2749249  -0.1442560), wk =   0.0039062
        k(  448) = (  -0.2621801  -0.2721833  -0.0711473), wk =   0.0039062
        k(  449) = (  -0.1273442  -0.0629584   0.0027661), wk =   0.0039062
        k(  450) = (  -0.1251739  -0.0602167   0.0758748), wk =   0.0039062
        k(  451) = (  -0.1230035  -0.0574751   0.1489835), wk =   0.0039062
        k(  452) = (  -0.1208331  -0.0547334   0.2220922), wk =   0.0039062
        k(  453) = (  -0.1360257  -0.0739251  -0.2896688), wk =   0.0039062
        k(  454) = (  -0.1338554  -0.0711834  -0.2165601), wk =   0.0039062
        k(  455) = (  -0.1316850  -0.0684418  -0.1434514), wk =   0.0039062
        k(  456) = (  -0.1295146  -0.0657001  -0.0703426), wk =   0.0039062
        k(  457) = (  -0.1220230   0.0805663   0.0063368), wk =   0.0039062
        k(  458) = (  -0.1198526   0.0833080   0.0794455), wk =   0.0039062
        k(  459) = (  -0.1176823   0.0860497   0.1525543), wk =   0.0039062
        k(  460) = (  -0.1155119   0.0887914   0.2256630), wk =   0.0039062
        k(  461) = (  -0.1307045   0.0695996  -0.2860981), wk =   0.0039062
        k(  462) = (  -0.1285341   0.0723413  -0.2129893), wk =   0.0039062
        k(  463) = (  -0.1263638   0.0750830  -0.1398806), wk =   0.0039062
        k(  464) = (  -0.1241934   0.0778247  -0.0667719), wk =   0.0039062
        k(  465) = (  -0.1167018   0.2240911   0.0099076), wk =   0.0039062
        k(  466) = (  -0.1145314   0.2268328   0.0830163), wk =   0.0039062
        k(  467) = (  -0.1123610   0.2295744   0.1561250), wk =   0.0039062
        k(  468) = (  -0.1101907   0.2323161   0.2292337), wk =   0.0039062
        k(  469) = (  -0.1253833   0.2131244  -0.2825273), wk =   0.0039062
        k(  470) = (  -0.1232129   0.2158660  -0.2094186), wk =   0.0039062
        k(  471) = (  -0.1210425   0.2186077  -0.1363099), wk =   0.0039062
        k(  472) = (  -0.1188721   0.2213494  -0.0632012), wk =   0.0039062
        k(  473) = (  -0.1113805   0.3676158   0.0134783), wk =   0.0039062
        k(  474) = (  -0.1092102   0.3703575   0.0865870), wk =   0.0039062
        k(  475) = (  -0.1070398   0.3730992   0.1596957), wk =   0.0039062
        k(  476) = (  -0.1048694   0.3758409   0.2328045), wk =   0.0039062
        k(  477) = (  -0.1200620   0.3566491  -0.2789566), wk =   0.0039062
        k(  478) = (  -0.1178917   0.3593908  -0.2058479), wk =   0.0039062
        k(  479) = (  -0.1157213   0.3621325  -0.1327391), wk =   0.0039062
        k(  480) = (  -0.1135509   0.3648742  -0.0596304), wk =   0.0039062
        k(  481) = (  -0.1486292  -0.6370574  -0.0115169), wk =   0.0039062
        k(  482) = (  -0.1464588  -0.6343157   0.0615918), wk =   0.0039062
        k(  483) = (  -0.1442884  -0.6315740   0.1347005), wk =   0.0039062
        k(  484) = (  -0.1421181  -0.6288324   0.2078092), wk =   0.0039062
        k(  485) = (  -0.1573107  -0.6480241  -0.3039518), wk =   0.0039062
        k(  486) = (  -0.1551403  -0.6452824  -0.2308431), wk =   0.0039062
        k(  487) = (  -0.1529699  -0.6425408  -0.1577343), wk =   0.0039062
        k(  488) = (  -0.1507995  -0.6397991  -0.0846256), wk =   0.0039062
        k(  489) = (  -0.1433079  -0.4935327  -0.0079462), wk =   0.0039062
        k(  490) = (  -0.1411376  -0.4907910   0.0651626), wk =   0.0039062
        k(  491) = (  -0.1389672  -0.4880493   0.1382713), wk =   0.0039062
        k(  492) = (  -0.1367968  -0.4853076   0.2113800), wk =   0.0039062
        k(  493) = (  -0.1519894  -0.5044994  -0.3003810), wk =   0.0039062
        k(  494) = (  -0.1498191  -0.5017577  -0.2272723), wk =   0.0039062
        k(  495) = (  -0.1476487  -0.4990160  -0.1541636), wk =   0.0039062
        k(  496) = (  -0.1454783  -0.4962743  -0.0810549), wk =   0.0039062
        k(  497) = (  -0.1379867  -0.3500079  -0.0043754), wk =   0.0039062
        k(  498) = (  -0.1358163  -0.3472662   0.0687333), wk =   0.0039062
        k(  499) = (  -0.1336460  -0.3445245   0.1418420), wk =   0.0039062
        k(  500) = (  -0.1314756  -0.3417829   0.2149507), wk =   0.0039062
        k(  501) = (  -0.1466682  -0.3609746  -0.2968103), wk =   0.0039062
        k(  502) = (  -0.1444978  -0.3582329  -0.2237016), wk =   0.0039062
        k(  503) = (  -0.1423275  -0.3554913  -0.1505929), wk =   0.0039062
        k(  504) = (  -0.1401571  -0.3527496  -0.0774841), wk =   0.0039062
        k(  505) = (  -0.1326655  -0.2064832  -0.0008047), wk =   0.0039062
        k(  506) = (  -0.1304951  -0.2037415   0.0723040), wk =   0.0039062
        k(  507) = (  -0.1283247  -0.2009998   0.1454128), wk =   0.0039062
        k(  508) = (  -0.1261544  -0.1982581   0.2185215), wk =   0.0039062
        k(  509) = (  -0.1413470  -0.2174499  -0.2932395), wk =   0.0039062
        k(  510) = (  -0.1391766  -0.2147082  -0.2201308), wk =   0.0039062
        k(  511) = (  -0.1370062  -0.2119665  -0.1470221), wk =   0.0039062
        k(  512) = (  -0.1348358  -0.2092248  -0.0739134), wk =   0.0039062

                       cryst. coord.
        k(    1) = (   0.0000000   0.0000000   0.0000000), wk =   0.0039062
        k(    2) = (   0.0000000   0.0000000   0.1250000), wk =   0.0039062
        k(    3) = (   0.0000000   0.0000000   0.2500000), wk =   0.0039062
        k(    4) = (   0.0000000   0.0000000   0.3750000), wk =   0.0039062
        k(    5) = (   0.0000000   0.0000000  -0.5000000), wk =   0.0039062
        k(    6) = (   0.0000000  -0.0000000  -0.3750000), wk =   0.0039062
        k(    7) = (   0.0000000   0.0000000  -0.2500000), wk =   0.0039062
        k(    8) = (   0.0000000   0.0000000  -0.1250000), wk =   0.0039062
        k(    9) = (   0.0000000   0.1250000   0.0000000), wk =   0.0039062
        k(   10) = (   0.0000000   0.1250000   0.1250000), wk =   0.0039062
        k(   11) = (  -0.0000000   0.1250000   0.2500000), wk =   0.0039062
        k(   12) = (   0.0000000   0.1250000   0.3750000), wk =   0.0039062
        k(   13) = (   0.0000000   0.1250000  -0.5000000), wk =   0.0039062
        k(   14) = (   0.0000000   0.1250000  -0.3750000), wk =   0.0039062
        k(   15) = (   0.0000000   0.1250000  -0.2500000), wk =   0.0039062
        k(   16) = (   0.0000000   0.1250000  -0.1250000), wk =   0.0039062
        k(   17) = (   0.0000000   0.2500000   0.0000000), wk =   0.0039062
        k(   18) = (   0.0000000   0.2500000   0.1250000), wk =   0.0039062
        k(   19) = (   0.0000000   0.2500000   0.2500000), wk =   0.0039062
        k(   20) = (   0.0000000   0.2500000   0.3750000), wk =   0.0039062
        k(   21) = (   0.0000000   0.2500000  -0.5000000), wk =   0.0039062
        k(   22) = (   0.0000000   0.2500000  -0.3750000), wk =   0.0039062
        k(   23) = (   0.0000000   0.2500000  -0.2500000), wk =   0.0039062
        k(   24) = (   0.0000000   0.2500000  -0.1250000), wk =   0.0039062
        k(   25) = (   0.0000000   0.3750000   0.0000000), wk =   0.0039062
        k(   26) = (  -0.0000000   0.3750000   0.1250000), wk =   0.0039062
        k(   27) = (   0.0000000   0.3750000   0.2500000), wk =   0.0039062
        k(   28) = (  -0.0000000   0.3750000   0.3750000), wk =   0.0039062
        k(   29) = (   0.0000000   0.3750000  -0.5000000), wk =   0.0039062
        k(   30) = (  -0.0000000   0.3750000  -0.3750000), wk =   0.0039062
        k(   31) = (  -0.0000000   0.3750000  -0.2500000), wk =   0.0039062
        k(   32) = (   0.0000000   0.3750000  -0.1250000), wk =   0.0039062
        k(   33) = (  -0.0000000  -0.5000000  -0.0000000), wk =   0.0039062
        k(   34) = (  -0.0000000  -0.5000000   0.1250000), wk =   0.0039062
        k(   35) = (  -0.0000000  -0.5000000   0.2500000), wk =   0.0039062
        k(   36) = (  -0.0000000  -0.5000000   0.3750000), wk =   0.0039062
        k(   37) = (  -0.0000000  -0.5000000  -0.5000000), wk =   0.0039062
        k(   38) = (  -0.0000000  -0.5000000  -0.3750000), wk =   0.0039062
        k(   39) = (   0.0000000  -0.5000000  -0.2500000), wk =   0.0039062
        k(   40) = (  -0.0000000  -0.5000000  -0.1250000), wk =   0.0039062
        k(   41) = (  -0.0000000  -0.3750000   0.0000000), wk =   0.0039062
        k(   42) = (   0.0000000  -0.3750000   0.1250000), wk =   0.0039062
        k(   43) = (   0.0000000  -0.3750000   0.2500000), wk =   0.0039062
        k(   44) = (   0.0000000  -0.3750000   0.3750000), wk =   0.0039062
        k(   45) = (  -0.0000000  -0.3750000  -0.5000000), wk =   0.0039062
        k(   46) = (   0.0000000  -0.3750000  -0.3750000), wk =   0.0039062
        k(   47) = (  -0.0000000  -0.3750000  -0.2500000), wk =   0.0039062
        k(   48) = (   0.0000000  -0.3750000  -0.1250000), wk =   0.0039062
        k(   49) = (  -0.0000000  -0.2500000  -0.0000000), wk =   0.0039062
        k(   50) = (  -0.0000000  -0.2500000   0.1250000), wk =   0.0039062
        k(   51) = (  -0.0000000  -0.2500000   0.2500000), wk =   0.0039062
        k(   52) = (  -0.0000000  -0.2500000   0.3750000), wk =   0.0039062
        k(   53) = (   0.0000000  -0.2500000  -0.5000000), wk =   0.0039062
        k(   54) = (  -0.0000000  -0.2500000  -0.3750000), wk =   0.0039062
        k(   55) = (  -0.0000000  -0.2500000  -0.2500000), wk =   0.0039062
        k(   56) = (   0.0000000  -0.2500000  -0.1250000), wk =   0.0039062
        k(   57) = (  -0.0000000  -0.1250000  -0.0000000), wk =   0.0039062
        k(   58) = (  -0.0000000  -0.1250000   0.1250000), wk =   0.0039062
        k(   59) = (   0.0000000  -0.1250000   0.2500000), wk =   0.0039062
        k(   60) = (  -0.0000000  -0.1250000   0.3750000), wk =   0.0039062
        k(   61) = (  -0.0000000  -0.1250000  -0.5000000), wk =   0.0039062
        k(   62) = (   0.0000000  -0.1250000  -0.3750000), wk =   0.0039062
        k(   63) = (   0.0000000  -0.1250000  -0.2500000), wk =   0.0039062
        k(   64) = (  -0.0000000  -0.1250000  -0.1250000), wk =   0.0039062
        k(   65) = (   0.1250000  -0.0000000   0.0000000), wk =   0.0039062
        k(   66) = (   0.1250000  -0.0000000   0.1250000), wk =   0.0039062
        k(   67) = (   0.1250000   0.0000000   0.2500000), wk =   0.0039062
        k(   68) = (   0.1250000   0.0000000   0.3750000), wk =   0.0039062
        k(   69) = (   0.1250000  -0.0000000  -0.5000000), wk =   0.0039062
        k(   70) = (   0.1250000  -0.0000000  -0.3750000), wk =   0.0039062
        k(   71) = (   0.1250000   0.0000000  -0.2500000), wk =   0.0039062
        k(   72) = (   0.1250000  -0.0000000  -0.1250000), wk =   0.0039062
        k(   73) = (   0.1250000   0.1250000   0.0000000), wk =   0.0039062
        k(   74) = (   0.1250000   0.1250000   0.1250000), wk =   0.0039062
        k(   75) = (   0.1250000   0.1250000   0.2500000), wk =   0.0039062
        k(   76) = (   0.1250000   0.1250000   0.3750000), wk =   0.0039062
        k(   77) = (   0.1250000   0.1250000  -0.5000000), wk =   0.0039062
        k(   78) = (   0.1250000   0.1250000  -0.3750000), wk =   0.0039062
        k(   79) = (   0.1250000   0.1250000  -0.2500000), wk =   0.0039062
        k(   80) = (   0.1250000   0.1250000  -0.1250000), wk =   0.0039062
        k(   81) = (   0.1250000   0.2500000   0.0000000), wk =   0.0039062
        k(   82) = (   0.1250000   0.2500000   0.1250000), wk =   0.0039062
        k(   83) = (   0.1250000   0.2500000   0.2500000), wk =   0.0039062
        k(   84) = (   0.1250000   0.2500000   0.3750000), wk =   0.0039062
        k(   85) = (   0.1250000   0.2500000  -0.5000000), wk =   0.0039062
        k(   86) = (   0.1250000   0.2500000  -0.3750000), wk =   0.0039062
        k(   87) = (   0.1250000   0.2500000  -0.2500000), wk =   0.0039062
        k(   88) = (   0.1250000   0.2500000  -0.1250000), wk =   0.0039062
        k(   89) = (   0.1250000   0.3750000   0.0000000), wk =   0.0039062
        k(   90) = (   0.1250000   0.3750000   0.1250000), wk =   0.0039062
        k(   91) = (   0.1250000   0.3750000   0.2500000), wk =   0.0039062
        k(   92) = (   0.1250000   0.3750000   0.3750000), wk =   0.0039062
        k(   93) = (   0.1250000   0.3750000  -0.5000000), wk =   0.0039062
        k(   94) = (   0.1250000   0.3750000  -0.3750000), wk =   0.0039062
        k(   95) = (   0.1250000   0.3750000  -0.2500000), wk =   0.0039062
        k(   96) = (   0.1250000   0.3750000  -0.1250000), wk =   0.0039062
        k(   97) = (   0.1250000  -0.5000000   0.0000000), wk =   0.0039062
        k(   98) = (   0.1250000  -0.5000000   0.1250000), wk =   0.0039062
        k(   99) = (   0.1250000  -0.5000000   0.2500000), wk =   0.0039062
        k(  100) = (   0.1250000  -0.5000000   0.3750000), wk =   0.0039062
        k(  101) = (   0.1250000  -0.5000000  -0.5000000), wk =   0.0039062
        k(  102) = (   0.1250000  -0.5000000  -0.3750000), wk =   0.0039062
        k(  103) = (   0.1250000  -0.5000000  -0.2500000), wk =   0.0039062
        k(  104) = (   0.1250000  -0.5000000  -0.1250000), wk =   0.0039062
        k(  105) = (   0.1250000  -0.3750000   0.0000000), wk =   0.0039062
        k(  106) = (   0.1250000  -0.3750000   0.1250000), wk =   0.0039062
        k(  107) = (   0.1250000  -0.3750000   0.2500000), wk =   0.0039062
        k(  108) = (   0.1250000  -0.3750000   0.3750000), wk =   0.0039062
        k(  109) = (   0.1250000  -0.3750000  -0.5000000), wk =   0.0039062
        k(  110) = (   0.1250000  -0.3750000  -0.3750000), wk =   0.0039062
        k(  111) = (   0.1250000  -0.3750000  -0.2500000), wk =   0.0039062
        k(  112) = (   0.1250000  -0.3750000  -0.1250000), wk =   0.0039062
        k(  113) = (   0.1250000  -0.2500000   0.0000000), wk =   0.0039062
        k(  114) = (   0.1250000  -0.2500000   0.1250000), wk =   0.0039062
        k(  115) = (   0.1250000  -0.2500000   0.2500000), wk =   0.0039062
        k(  116) = (   0.1250000  -0.2500000   0.3750000), wk =   0.0039062
        k(  117) = (   0.1250000  -0.2500000  -0.5000000), wk =   0.0039062
        k(  118) = (   0.1250000  -0.2500000  -0.3750000), wk =   0.0039062
        k(  119) = (   0.1250000  -0.2500000  -0.2500000), wk =   0.0039062
        k(  120) = (   0.1250000  -0.2500000  -0.1250000), wk =   0.0039062
        k(  121) = (   0.1250000  -0.1250000  -0.0000000), wk =   0.0039062
        k(  122) = (   0.1250000  -0.1250000   0.1250000), wk =   0.0039062
        k(  123) = (   0.1250000  -0.1250000   0.2500000), wk =   0.0039062
        k(  124) = (   0.1250000  -0.1250000   0.3750000), wk =   0.0039062
        k(  125) = (   0.1250000  -0.1250000  -0.5000000), wk =   0.0039062
        k(  126) = (   0.1250000  -0.1250000  -0.3750000), wk =   0.0039062
        k(  127) = (   0.1250000  -0.1250000  -0.2500000), wk =   0.0039062
        k(  128) = (   0.1250000  -0.1250000  -0.1250000), wk =   0.0039062
        k(  129) = (   0.2500000  -0.0000000   0.0000000), wk =   0.0039062
        k(  130) = (   0.2500000   0.0000000   0.1250000), wk =   0.0039062
        k(  131) = (   0.2500000  -0.0000000   0.2500000), wk =   0.0039062
        k(  132) = (   0.2500000  -0.0000000   0.3750000), wk =   0.0039062
        k(  133) = (   0.2500000   0.0000000  -0.5000000), wk =   0.0039062
        k(  134) = (   0.2500000  -0.0000000  -0.3750000), wk =   0.0039062
        k(  135) = (   0.2500000  -0.0000000  -0.2500000), wk =   0.0039062
        k(  136) = (   0.2500000   0.0000000  -0.1250000), wk =   0.0039062
        k(  137) = (   0.2500000   0.1250000  -0.0000000), wk =   0.0039062
        k(  138) = (   0.2500000   0.1250000   0.1250000), wk =   0.0039062
        k(  139) = (   0.2500000   0.1250000   0.2500000), wk =   0.0039062
        k(  140) = (   0.2500000   0.1250000   0.3750000), wk =   0.0039062
        k(  141) = (   0.2500000   0.1250000  -0.5000000), wk =   0.0039062
        k(  142) = (   0.2500000   0.1250000  -0.3750000), wk =   0.0039062
        k(  143) = (   0.2500000   0.1250000  -0.2500000), wk =   0.0039062
        k(  144) = (   0.2500000   0.1250000  -0.1250000), wk =   0.0039062
        k(  145) = (   0.2500000   0.2500000   0.0000000), wk =   0.0039062
        k(  146) = (   0.2500000   0.2500000   0.1250000), wk =   0.0039062
        k(  147) = (   0.2500000   0.2500000   0.2500000), wk =   0.0039062
        k(  148) = (   0.2500000   0.2500000   0.3750000), wk =   0.0039062
        k(  149) = (   0.2500000   0.2500000  -0.5000000), wk =   0.0039062
        k(  150) = (   0.2500000   0.2500000  -0.3750000), wk =   0.0039062
        k(  151) = (   0.2500000   0.2500000  -0.2500000), wk =   0.0039062
        k(  152) = (   0.2500000   0.2500000  -0.1250000), wk =   0.0039062
        k(  153) = (   0.2500000   0.3750000   0.0000000), wk =   0.0039062
        k(  154) = (   0.2500000   0.3750000   0.1250000), wk =   0.0039062
        k(  155) = (   0.2500000   0.3750000   0.2500000), wk =   0.0039062
        k(  156) = (   0.2500000   0.3750000   0.3750000), wk =   0.0039062
        k(  157) = (   0.2500000   0.3750000  -0.5000000), wk =   0.0039062
        k(  158) = (   0.2500000   0.3750000  -0.3750000), wk =   0.0039062
        k(  159) = (   0.2500000   0.3750000  -0.2500000), wk =   0.0039062
        k(  160) = (   0.2500000   0.3750000  -0.1250000), wk =   0.0039062
        k(  161) = (   0.2500000  -0.5000000   0.0000000), wk =   0.0039062
        k(  162) = (   0.2500000  -0.5000000   0.1250000), wk =   0.0039062
        k(  163) = (   0.2500000  -0.5000000   0.2500000), wk =   0.0039062
        k(  164) = (   0.2500000  -0.5000000   0.3750000), wk =   0.0039062
        k(  165) = (   0.2500000  -0.5000000  -0.5000000), wk =   0.0039062
        k(  166) = (   0.2500000  -0.5000000  -0.3750000), wk =   0.0039062
        k(  167) = (   0.2500000  -0.5000000  -0.2500000), wk =   0.0039062
        k(  168) = (   0.2500000  -0.5000000  -0.1250000), wk =   0.0039062
        k(  169) = (   0.2500000  -0.3750000   0.0000000), wk =   0.0039062
        k(  170) = (   0.2500000  -0.3750000   0.1250000), wk =   0.0039062
        k(  171) = (   0.2500000  -0.3750000   0.2500000), wk =   0.0039062
        k(  172) = (   0.2500000  -0.3750000   0.3750000), wk =   0.0039062
        k(  173) = (   0.2500000  -0.3750000  -0.5000000), wk =   0.0039062
        k(  174) = (   0.2500000  -0.3750000  -0.3750000), wk =   0.0039062
        k(  175) = (   0.2500000  -0.3750000  -0.2500000), wk =   0.0039062
        k(  176) = (   0.2500000  -0.3750000  -0.1250000), wk =   0.0039062
        k(  177) = (   0.2500000  -0.2500000  -0.0000000), wk =   0.0039062
        k(  178) = (   0.2500000  -0.2500000   0.1250000), wk =   0.0039062
        k(  179) = (   0.2500000  -0.2500000   0.2500000), wk =   0.0039062
        k(  180) = (   0.2500000  -0.2500000   0.3750000), wk =   0.0039062
        k(  181) = (   0.2500000  -0.2500000  -0.5000000), wk =   0.0039062
        k(  182) = (   0.2500000  -0.2500000  -0.3750000), wk =   0.0039062
        k(  183) = (   0.2500000  -0.2500000  -0.2500000), wk =   0.0039062
        k(  184) = (   0.2500000  -0.2500000  -0.1250000), wk =   0.0039062
        k(  185) = (   0.2500000  -0.1250000  -0.0000000), wk =   0.0039062
        k(  186) = (   0.2500000  -0.1250000   0.1250000), wk =   0.0039062
        k(  187) = (   0.2500000  -0.1250000   0.2500000), wk =   0.0039062
        k(  188) = (   0.2500000  -0.1250000   0.3750000), wk =   0.0039062
        k(  189) = (   0.2500000  -0.1250000  -0.5000000), wk =   0.0039062
        k(  190) = (   0.2500000  -0.1250000  -0.3750000), wk =   0.0039062
        k(  191) = (   0.2500000  -0.1250000  -0.2500000), wk =   0.0039062
        k(  192) = (   0.2500000  -0.1250000  -0.1250000), wk =   0.0039062
        k(  193) = (   0.3750000  -0.0000000   0.0000000), wk =   0.0039062
        k(  194) = (   0.3750000  -0.0000000   0.1250000), wk =   0.0039062
        k(  195) = (   0.3750000  -0.0000000   0.2500000), wk =   0.0039062
        k(  196) = (   0.3750000  -0.0000000   0.3750000), wk =   0.0039062
        k(  197) = (   0.3750000  -0.0000000  -0.5000000), wk =   0.0039062
        k(  198) = (   0.3750000   0.0000000  -0.3750000), wk =   0.0039062
        k(  199) = (   0.3750000   0.0000000  -0.2500000), wk =   0.0039062
        k(  200) = (   0.3750000  -0.0000000  -0.1250000), wk =   0.0039062
        k(  201) = (   0.3750000   0.1250000   0.0000000), wk =   0.0039062
        k(  202) = (   0.3750000   0.1250000   0.1250000), wk =   0.0039062
        k(  203) = (   0.3750000   0.1250000   0.2500000), wk =   0.0039062
        k(  204) = (   0.3750000   0.1250000   0.3750000), wk =   0.0039062
        k(  205) = (   0.3750000   0.1250000  -0.5000000), wk =   0.0039062
        k(  206) = (   0.3750000   0.1250000  -0.3750000), wk =   0.0039062
        k(  207) = (   0.3750000   0.1250000  -0.2500000), wk =   0.0039062
        k(  208) = (   0.3750000   0.1250000  -0.1250000), wk =   0.0039062
        k(  209) = (   0.3750000   0.2500000   0.0000000), wk =   0.0039062
        k(  210) = (   0.3750000   0.2500000   0.1250000), wk =   0.0039062
        k(  211) = (   0.3750000   0.2500000   0.2500000), wk =   0.0039062
        k(  212) = (   0.3750000   0.2500000   0.3750000), wk =   0.0039062
        k(  213) = (   0.3750000   0.2500000  -0.5000000), wk =   0.0039062
        k(  214) = (   0.3750000   0.2500000  -0.3750000), wk =   0.0039062
        k(  215) = (   0.3750000   0.2500000  -0.2500000), wk =   0.0039062
        k(  216) = (   0.3750000   0.2500000  -0.1250000), wk =   0.0039062
        k(  217) = (   0.3750000   0.3750000   0.0000000), wk =   0.0039062
        k(  218) = (   0.3750000   0.3750000   0.1250000), wk =   0.0039062
        k(  219) = (   0.3750000   0.3750000   0.2500000), wk =   0.0039062
        k(  220) = (   0.3750000   0.3750000   0.3750000), wk =   0.0039062
        k(  221) = (   0.3750000   0.3750000  -0.5000000), wk =   0.0039062
        k(  222) = (   0.3750000   0.3750000  -0.3750000), wk =   0.0039062
        k(  223) = (   0.3750000   0.3750000  -0.2500000), wk =   0.0039062
        k(  224) = (   0.3750000   0.3750000  -0.1250000), wk =   0.0039062
        k(  225) = (   0.3750000  -0.5000000   0.0000000), wk =   0.0039062
        k(  226) = (   0.3750000  -0.5000000   0.1250000), wk =   0.0039062
        k(  227) = (   0.3750000  -0.5000000   0.2500000), wk =   0.0039062
        k(  228) = (   0.3750000  -0.5000000   0.3750000), wk =   0.0039062
        k(  229) = (   0.3750000  -0.5000000  -0.5000000), wk =   0.0039062
        k(  230) = (   0.3750000  -0.5000000  -0.3750000), wk =   0.0039062
        k(  231) = (   0.3750000  -0.5000000  -0.2500000), wk =   0.0039062
        k(  232) = (   0.3750000  -0.5000000  -0.1250000), wk =   0.0039062
        k(  233) = (   0.3750000  -0.3750000   0.0000000), wk =   0.0039062
        k(  234) = (   0.3750000  -0.3750000   0.1250000), wk =   0.0039062
        k(  235) = (   0.3750000  -0.3750000   0.2500000), wk =   0.0039062
        k(  236) = (   0.3750000  -0.3750000   0.3750000), wk =   0.0039062
        k(  237) = (   0.3750000  -0.3750000  -0.5000000), wk =   0.0039062
        k(  238) = (   0.3750000  -0.3750000  -0.3750000), wk =   0.0039062
        k(  239) = (   0.3750000  -0.3750000  -0.2500000), wk =   0.0039062
        k(  240) = (   0.3750000  -0.3750000  -0.1250000), wk =   0.0039062
        k(  241) = (   0.3750000  -0.2500000   0.0000000), wk =   0.0039062
        k(  242) = (   0.3750000  -0.2500000   0.1250000), wk =   0.0039062
        k(  243) = (   0.3750000  -0.2500000   0.2500000), wk =   0.0039062
        k(  244) = (   0.3750000  -0.2500000   0.3750000), wk =   0.0039062
        k(  245) = (   0.3750000  -0.2500000  -0.5000000), wk =   0.0039062
        k(  246) = (   0.3750000  -0.2500000  -0.3750000), wk =   0.0039062
        k(  247) = (   0.3750000  -0.2500000  -0.2500000), wk =   0.0039062
        k(  248) = (   0.3750000  -0.2500000  -0.1250000), wk =   0.0039062
        k(  249) = (   0.3750000  -0.1250000   0.0000000), wk =   0.0039062
        k(  250) = (   0.3750000  -0.1250000   0.1250000), wk =   0.0039062
        k(  251) = (   0.3750000  -0.1250000   0.2500000), wk =   0.0039062
        k(  252) = (   0.3750000  -0.1250000   0.3750000), wk =   0.0039062
        k(  253) = (   0.3750000  -0.1250000  -0.5000000), wk =   0.0039062
        k(  254) = (   0.3750000  -0.1250000  -0.3750000), wk =   0.0039062
        k(  255) = (   0.3750000  -0.1250000  -0.2500000), wk =   0.0039062
        k(  256) = (   0.3750000  -0.1250000  -0.1250000), wk =   0.0039062
        k(  257) = (  -0.5000000   0.0000000   0.0000000), wk =   0.0039062
        k(  258) = (  -0.5000000   0.0000000   0.1250000), wk =   0.0039062
        k(  259) = (  -0.5000000  -0.0000000   0.2500000), wk =   0.0039062
        k(  260) = (  -0.5000000  -0.0000000   0.3750000), wk =   0.0039062
        k(  261) = (  -0.5000000   0.0000000  -0.5000000), wk =   0.0039062
        k(  262) = (  -0.5000000   0.0000000  -0.3750000), wk =   0.0039062
        k(  263) = (  -0.5000000  -0.0000000  -0.2500000), wk =   0.0039062
        k(  264) = (  -0.5000000  -0.0000000  -0.1250000), wk =   0.0039062
        k(  265) = (  -0.5000000   0.1250000   0.0000000), wk =   0.0039062
        k(  266) = (  -0.5000000   0.1250000   0.1250000), wk =   0.0039062
        k(  267) = (  -0.5000000   0.1250000   0.2500000), wk =   0.0039062
        k(  268) = (  -0.5000000   0.1250000   0.3750000), wk =   0.0039062
        k(  269) = (  -0.5000000   0.1250000  -0.5000000), wk =   0.0039062
        k(  270) = (  -0.5000000   0.1250000  -0.3750000), wk =   0.0039062
        k(  271) = (  -0.5000000   0.1250000  -0.2500000), wk =   0.0039062
        k(  272) = (  -0.5000000   0.1250000  -0.1250000), wk =   0.0039062
        k(  273) = (  -0.5000000   0.2500000   0.0000000), wk =   0.0039062
        k(  274) = (  -0.5000000   0.2500000   0.1250000), wk =   0.0039062
        k(  275) = (  -0.5000000   0.2500000   0.2500000), wk =   0.0039062
        k(  276) = (  -0.5000000   0.2500000   0.3750000), wk =   0.0039062
        k(  277) = (  -0.5000000   0.2500000  -0.5000000), wk =   0.0039062
        k(  278) = (  -0.5000000   0.2500000  -0.3750000), wk =   0.0039062
        k(  279) = (  -0.5000000   0.2500000  -0.2500000), wk =   0.0039062
        k(  280) = (  -0.5000000   0.2500000  -0.1250000), wk =   0.0039062
        k(  281) = (  -0.5000000   0.3750000   0.0000000), wk =   0.0039062
        k(  282) = (  -0.5000000   0.3750000   0.1250000), wk =   0.0039062
        k(  283) = (  -0.5000000   0.3750000   0.2500000), wk =   0.0039062
        k(  284) = (  -0.5000000   0.3750000   0.3750000), wk =   0.0039062
        k(  285) = (  -0.5000000   0.3750000  -0.5000000), wk =   0.0039062
        k(  286) = (  -0.5000000   0.3750000  -0.3750000), wk =   0.0039062
        k(  287) = (  -0.5000000   0.3750000  -0.2500000), wk =   0.0039062
        k(  288) = (  -0.5000000   0.3750000  -0.1250000), wk =   0.0039062
        k(  289) = (  -0.5000000  -0.5000000  -0.0000000), wk =   0.0039062
        k(  290) = (  -0.5000000  -0.5000000   0.1250000), wk =   0.0039062
        k(  291) = (  -0.5000000  -0.5000000   0.2500000), wk =   0.0039062
        k(  292) = (  -0.5000000  -0.5000000   0.3750000), wk =   0.0039062
        k(  293) = (  -0.5000000  -0.5000000  -0.5000000), wk =   0.0039062
        k(  294) = (  -0.5000000  -0.5000000  -0.3750000), wk =   0.0039062
        k(  295) = (  -0.5000000  -0.5000000  -0.2500000), wk =   0.0039062
        k(  296) = (  -0.5000000  -0.5000000  -0.1250000), wk =   0.0039062
        k(  297) = (  -0.5000000  -0.3750000  -0.0000000), wk =   0.0039062
        k(  298) = (  -0.5000000  -0.3750000   0.1250000), wk =   0.0039062
        k(  299) = (  -0.5000000  -0.3750000   0.2500000), wk =   0.0039062
        k(  300) = (  -0.5000000  -0.3750000   0.3750000), wk =   0.0039062
        k(  301) = (  -0.5000000  -0.3750000  -0.5000000), wk =   0.0039062
        k(  302) = (  -0.5000000  -0.3750000  -0.3750000), wk =   0.0039062
        k(  303) = (  -0.5000000  -0.3750000  -0.2500000), wk =   0.0039062
        k(  304) = (  -0.5000000  -0.3750000  -0.1250000), wk =   0.0039062
        k(  305) = (  -0.5000000  -0.2500000   0.0000000), wk =   0.0039062
        k(  306) = (  -0.5000000  -0.2500000   0.1250000), wk =   0.0039062
        k(  307) = (  -0.5000000  -0.2500000   0.2500000), wk =   0.0039062
        k(  308) = (  -0.5000000  -0.2500000   0.3750000), wk =   0.0039062
        k(  309) = (  -0.5000000  -0.2500000  -0.5000000), wk =   0.0039062
        k(  310) = (  -0.5000000  -0.2500000  -0.3750000), wk =   0.0039062
        k(  311) = (  -0.5000000  -0.2500000  -0.2500000), wk =   0.0039062
        k(  312) = (  -0.5000000  -0.2500000  -0.1250000), wk =   0.0039062
        k(  313) = (  -0.5000000  -0.1250000  -0.0000000), wk =   0.0039062
        k(  314) = (  -0.5000000  -0.1250000   0.1250000), wk =   0.0039062
        k(  315) = (  -0.5000000  -0.1250000   0.2500000), wk =   0.0039062
        k(  316) = (  -0.5000000  -0.1250000   0.3750000), wk =   0.0039062
        k(  317) = (  -0.5000000  -0.1250000  -0.5000000), wk =   0.0039062
        k(  318) = (  -0.5000000  -0.1250000  -0.3750000), wk =   0.0039062
        k(  319) = (  -0.5000000  -0.1250000  -0.2500000), wk =   0.0039062
        k(  320) = (  -0.5000000  -0.1250000  -0.1250000), wk =   0.0039062
        k(  321) = (  -0.3750000   0.0000000  -0.0000000), wk =   0.0039062
        k(  322) = (  -0.3750000   0.0000000   0.1250000), wk =   0.0039062
        k(  323) = (  -0.3750000  -0.0000000   0.2500000), wk =   0.0039062
        k(  324) = (  -0.3750000  -0.0000000   0.3750000), wk =   0.0039062
        k(  325) = (  -0.3750000  -0.0000000  -0.5000000), wk =   0.0039062
        k(  326) = (  -0.3750000   0.0000000  -0.3750000), wk =   0.0039062
        k(  327) = (  -0.3750000   0.0000000  -0.2500000), wk =   0.0039062
        k(  328) = (  -0.3750000   0.0000000  -0.1250000), wk =   0.0039062
        k(  329) = (  -0.3750000   0.1250000  -0.0000000), wk =   0.0039062
        k(  330) = (  -0.3750000   0.1250000   0.1250000), wk =   0.0039062
        k(  331) = (  -0.3750000   0.1250000   0.2500000), wk =   0.0039062
        k(  332) = (  -0.3750000   0.1250000   0.3750000), wk =   0.0039062
        k(  333) = (  -0.3750000   0.1250000  -0.5000000), wk =   0.0039062
        k(  334) = (  -0.3750000   0.1250000  -0.3750000), wk =   0.0039062
        k(  335) = (  -0.3750000   0.1250000  -0.2500000), wk =   0.0039062
        k(  336) = (  -0.3750000   0.1250000  -0.1250000), wk =   0.0039062
        k(  337) = (  -0.3750000   0.2500000  -0.0000000), wk =   0.0039062
        k(  338) = (  -0.3750000   0.2500000   0.1250000), wk =   0.0039062
        k(  339) = (  -0.3750000   0.2500000   0.2500000), wk =   0.0039062
        k(  340) = (  -0.3750000   0.2500000   0.3750000), wk =   0.0039062
        k(  341) = (  -0.3750000   0.2500000  -0.5000000), wk =   0.0039062
        k(  342) = (  -0.3750000   0.2500000  -0.3750000), wk =   0.0039062
        k(  343) = (  -0.3750000   0.2500000  -0.2500000), wk =   0.0039062
        k(  344) = (  -0.3750000   0.2500000  -0.1250000), wk =   0.0039062
        k(  345) = (  -0.3750000   0.3750000  -0.0000000), wk =   0.0039062
        k(  346) = (  -0.3750000   0.3750000   0.1250000), wk =   0.0039062
        k(  347) = (  -0.3750000   0.3750000   0.2500000), wk =   0.0039062
        k(  348) = (  -0.3750000   0.3750000   0.3750000), wk =   0.0039062
        k(  349) = (  -0.3750000   0.3750000  -0.5000000), wk =   0.0039062
        k(  350) = (  -0.3750000   0.3750000  -0.3750000), wk =   0.0039062
        k(  351) = (  -0.3750000   0.3750000  -0.2500000), wk =   0.0039062
        k(  352) = (  -0.3750000   0.3750000  -0.1250000), wk =   0.0039062
        k(  353) = (  -0.3750000  -0.5000000  -0.0000000), wk =   0.0039062
        k(  354) = (  -0.3750000  -0.5000000   0.1250000), wk =   0.0039062
        k(  355) = (  -0.3750000  -0.5000000   0.2500000), wk =   0.0039062
        k(  356) = (  -0.3750000  -0.5000000   0.3750000), wk =   0.0039062
        k(  357) = (  -0.3750000  -0.5000000  -0.5000000), wk =   0.0039062
        k(  358) = (  -0.3750000  -0.5000000  -0.3750000), wk =   0.0039062
        k(  359) = (  -0.3750000  -0.5000000  -0.2500000), wk =   0.0039062
        k(  360) = (  -0.3750000  -0.5000000  -0.1250000), wk =   0.0039062
        k(  361) = (  -0.3750000  -0.3750000   0.0000000), wk =   0.0039062
        k(  362) = (  -0.3750000  -0.3750000   0.1250000), wk =   0.0039062
        k(  363) = (  -0.3750000  -0.3750000   0.2500000), wk =   0.0039062
        k(  364) = (  -0.3750000  -0.3750000   0.3750000), wk =   0.0039062
        k(  365) = (  -0.3750000  -0.3750000  -0.5000000), wk =   0.0039062
        k(  366) = (  -0.3750000  -0.3750000  -0.3750000), wk =   0.0039062
        k(  367) = (  -0.3750000  -0.3750000  -0.2500000), wk =   0.0039062
        k(  368) = (  -0.3750000  -0.3750000  -0.1250000), wk =   0.0039062
        k(  369) = (  -0.3750000  -0.2500000  -0.0000000), wk =   0.0039062
        k(  370) = (  -0.3750000  -0.2500000   0.1250000), wk =   0.0039062
        k(  371) = (  -0.3750000  -0.2500000   0.2500000), wk =   0.0039062
        k(  372) = (  -0.3750000  -0.2500000   0.3750000), wk =   0.0039062
        k(  373) = (  -0.3750000  -0.2500000  -0.5000000), wk =   0.0039062
        k(  374) = (  -0.3750000  -0.2500000  -0.3750000), wk =   0.0039062
        k(  375) = (  -0.3750000  -0.2500000  -0.2500000), wk =   0.0039062
        k(  376) = (  -0.3750000  -0.2500000  -0.1250000), wk =   0.0039062
        k(  377) = (  -0.3750000  -0.1250000  -0.0000000), wk =   0.0039062
        k(  378) = (  -0.3750000  -0.1250000   0.1250000), wk =   0.0039062
        k(  379) = (  -0.3750000  -0.1250000   0.2500000), wk =   0.0039062
        k(  380) = (  -0.3750000  -0.1250000   0.3750000), wk =   0.0039062
        k(  381) = (  -0.3750000  -0.1250000  -0.5000000), wk =   0.0039062
        k(  382) = (  -0.3750000  -0.1250000  -0.3750000), wk =   0.0039062
        k(  383) = (  -0.3750000  -0.1250000  -0.2500000), wk =   0.0039062
        k(  384) = (  -0.3750000  -0.1250000  -0.1250000), wk =   0.0039062
        k(  385) = (  -0.2500000   0.0000000   0.0000000), wk =   0.0039062
        k(  386) = (  -0.2500000  -0.0000000   0.1250000), wk =   0.0039062
        k(  387) = (  -0.2500000   0.0000000   0.2500000), wk =   0.0039062
        k(  388) = (  -0.2500000   0.0000000   0.3750000), wk =   0.0039062
        k(  389) = (  -0.2500000  -0.0000000  -0.5000000), wk =   0.0039062
        k(  390) = (  -0.2500000   0.0000000  -0.3750000), wk =   0.0039062
        k(  391) = (  -0.2500000   0.0000000  -0.2500000), wk =   0.0039062
        k(  392) = (  -0.2500000  -0.0000000  -0.1250000), wk =   0.0039062
        k(  393) = (  -0.2500000   0.1250000   0.0000000), wk =   0.0039062
        k(  394) = (  -0.2500000   0.1250000   0.1250000), wk =   0.0039062
        k(  395) = (  -0.2500000   0.1250000   0.2500000), wk =   0.0039062
        k(  396) = (  -0.2500000   0.1250000   0.3750000), wk =   0.0039062
        k(  397) = (  -0.2500000   0.1250000  -0.5000000), wk =   0.0039062
        k(  398) = (  -0.2500000   0.1250000  -0.3750000), wk =   0.0039062
        k(  399) = (  -0.2500000   0.1250000  -0.2500000), wk =   0.0039062
        k(  400) = (  -0.2500000   0.1250000  -0.1250000), wk =   0.0039062
        k(  401) = (  -0.2500000   0.2500000   0.0000000), wk =   0.0039062
        k(  402) = (  -0.2500000   0.2500000   0.1250000), wk =   0.0039062
        k(  403) = (  -0.2500000   0.2500000   0.2500000), wk =   0.0039062
        k(  404) = (  -0.2500000   0.2500000   0.3750000), wk =   0.0039062
        k(  405) = (  -0.2500000   0.2500000  -0.5000000), wk =   0.0039062
        k(  406) = (  -0.2500000   0.2500000  -0.3750000), wk =   0.0039062
        k(  407) = (  -0.2500000   0.2500000  -0.2500000), wk =   0.0039062
        k(  408) = (  -0.2500000   0.2500000  -0.1250000), wk =   0.0039062
        k(  409) = (  -0.2500000   0.3750000   0.0000000), wk =   0.0039062
        k(  410) = (  -0.2500000   0.3750000   0.1250000), wk =   0.0039062
        k(  411) = (  -0.2500000   0.3750000   0.2500000), wk =   0.0039062
        k(  412) = (  -0.2500000   0.3750000   0.3750000), wk =   0.0039062
        k(  413) = (  -0.2500000   0.3750000  -0.5000000), wk =   0.0039062
        k(  414) = (  -0.2500000   0.3750000  -0.3750000), wk =   0.0039062
        k(  415) = (  -0.2500000   0.3750000  -0.2500000), wk =   0.0039062
        k(  416) = (  -0.2500000   0.3750000  -0.1250000), wk =   0.0039062
        k(  417) = (  -0.2500000  -0.5000000  -0.0000000), wk =   0.0039062
        k(  418) = (  -0.2500000  -0.5000000   0.1250000), wk =   0.0039062
        k(  419) = (  -0.2500000  -0.5000000   0.2500000), wk =   0.0039062
        k(  420) = (  -0.2500000  -0.5000000   0.3750000), wk =   0.0039062
        k(  421) = (  -0.2500000  -0.5000000  -0.5000000), wk =   0.0039062
        k(  422) = (  -0.2500000  -0.5000000  -0.3750000), wk =   0.0039062
        k(  423) = (  -0.2500000  -0.5000000  -0.2500000), wk =   0.0039062
        k(  424) = (  -0.2500000  -0.5000000  -0.1250000), wk =   0.0039062
        k(  425) = (  -0.2500000  -0.3750000  -0.0000000), wk =   0.0039062
        k(  426) = (  -0.2500000  -0.3750000   0.1250000), wk =   0.0039062
        k(  427) = (  -0.2500000  -0.3750000   0.2500000), wk =   0.0039062
        k(  428) = (  -0.2500000  -0.3750000   0.3750000), wk =   0.0039062
        k(  429) = (  -0.2500000  -0.3750000  -0.5000000), wk =   0.0039062
        k(  430) = (  -0.2500000  -0.3750000  -0.3750000), wk =   0.0039062
        k(  431) = (  -0.2500000  -0.3750000  -0.2500000), wk =   0.0039062
        k(  432) = (  -0.2500000  -0.3750000  -0.1250000), wk =   0.0039062
        k(  433) = (  -0.2500000  -0.2500000  -0.0000000), wk =   0.0039062
        k(  434) = (  -0.2500000  -0.2500000   0.1250000), wk =   0.0039062
        k(  435) = (  -0.2500000  -0.2500000   0.2500000), wk =   0.0039062
        k(  436) = (  -0.2500000  -0.2500000   0.3750000), wk =   0.0039062
        k(  437) = (  -0.2500000  -0.2500000  -0.5000000), wk =   0.0039062
        k(  438) = (  -0.2500000  -0.2500000  -0.3750000), wk =   0.0039062
        k(  439) = (  -0.2500000  -0.2500000  -0.2500000), wk =   0.0039062
        k(  440) = (  -0.2500000  -0.2500000  -0.1250000), wk =   0.0039062
        k(  441) = (  -0.2500000  -0.1250000   0.0000000), wk =   0.0039062
        k(  442) = (  -0.2500000  -0.1250000   0.1250000), wk =   0.0039062
        k(  443) = (  -0.2500000  -0.1250000   0.2500000), wk =   0.0039062
        k(  444) = (  -0.2500000  -0.1250000   0.3750000), wk =   0.0039062
        k(  445) = (  -0.2500000  -0.1250000  -0.5000000), wk =   0.0039062
        k(  446) = (  -0.2500000  -0.1250000  -0.3750000), wk =   0.0039062
        k(  447) = (  -0.2500000  -0.1250000  -0.2500000), wk =   0.0039062
        k(  448) = (  -0.2500000  -0.1250000  -0.1250000), wk =   0.0039062
        k(  449) = (  -0.1250000   0.0000000   0.0000000), wk =   0.0039062
        k(  450) = (  -0.1250000   0.0000000   0.1250000), wk =   0.0039062
        k(  451) = (  -0.1250000  -0.0000000   0.2500000), wk =   0.0039062
        k(  452) = (  -0.1250000   0.0000000   0.3750000), wk =   0.0039062
        k(  453) = (  -0.1250000  -0.0000000  -0.5000000), wk =   0.0039062
        k(  454) = (  -0.1250000  -0.0000000  -0.3750000), wk =   0.0039062
        k(  455) = (  -0.1250000  -0.0000000  -0.2500000), wk =   0.0039062
        k(  456) = (  -0.1250000   0.0000000  -0.1250000), wk =   0.0039062
        k(  457) = (  -0.1250000   0.1250000   0.0000000), wk =   0.0039062
        k(  458) = (  -0.1250000   0.1250000   0.1250000), wk =   0.0039062
        k(  459) = (  -0.1250000   0.1250000   0.2500000), wk =   0.0039062
        k(  460) = (  -0.1250000   0.1250000   0.3750000), wk =   0.0039062
        k(  461) = (  -0.1250000   0.1250000  -0.5000000), wk =   0.0039062
        k(  462) = (  -0.1250000   0.1250000  -0.3750000), wk =   0.0039062
        k(  463) = (  -0.1250000   0.1250000  -0.2500000), wk =   0.0039062
        k(  464) = (  -0.1250000   0.1250000  -0.1250000), wk =   0.0039062
        k(  465) = (  -0.1250000   0.2500000  -0.0000000), wk =   0.0039062
        k(  466) = (  -0.1250000   0.2500000   0.1250000), wk =   0.0039062
        k(  467) = (  -0.1250000   0.2500000   0.2500000), wk =   0.0039062
        k(  468) = (  -0.1250000   0.2500000   0.3750000), wk =   0.0039062
        k(  469) = (  -0.1250000   0.2500000  -0.5000000), wk =   0.0039062
        k(  470) = (  -0.1250000   0.2500000  -0.3750000), wk =   0.0039062
        k(  471) = (  -0.1250000   0.2500000  -0.2500000), wk =   0.0039062
        k(  472) = (  -0.1250000   0.2500000  -0.1250000), wk =   0.0039062
        k(  473) = (  -0.1250000   0.3750000   0.0000000), wk =   0.0039062
        k(  474) = (  -0.1250000   0.3750000   0.1250000), wk =   0.0039062
        k(  475) = (  -0.1250000   0.3750000   0.2500000), wk =   0.0039062
        k(  476) = (  -0.1250000   0.3750000   0.3750000), wk =   0.0039062
        k(  477) = (  -0.1250000   0.3750000  -0.5000000), wk =   0.0039062
        k(  478) = (  -0.1250000   0.3750000  -0.3750000), wk =   0.0039062
        k(  479) = (  -0.1250000   0.3750000  -0.2500000), wk =   0.0039062
        k(  480) = (  -0.1250000   0.3750000  -0.1250000), wk =   0.0039062
        k(  481) = (  -0.1250000  -0.5000000  -0.0000000), wk =   0.0039062
        k(  482) = (  -0.1250000  -0.5000000   0.1250000), wk =   0.0039062
        k(  483) = (  -0.1250000  -0.5000000   0.2500000), wk =   0.0039062
        k(  484) = (  -0.1250000  -0.5000000   0.3750000), wk =   0.0039062
        k(  485) = (  -0.1250000  -0.5000000  -0.5000000), wk =   0.0039062
        k(  486) = (  -0.1250000  -0.5000000  -0.3750000), wk =   0.0039062
        k(  487) = (  -0.1250000  -0.5000000  -0.2500000), wk =   0.0039062
[...]

    -2.6984  -0.9253   8.5445  13.4206  16.3977  16.9102  17.2142  18.1496

     occupation numbers 
     1.0000   1.0000   1.0000   0.0000   0.0000   0.0000   0.0000   0.0000

          k =-0.1264 0.0751-0.1399 (   859 PWs)   bands (ev):

    -3.2000   0.2048   6.5168  15.5443  16.1232  16.6506  17.8104  18.9005

     occupation numbers 
     1.0000   1.0000   1.0000   0.0000   0.0000   0.0000   0.0000   0.0000

          k =-0.1242 0.0778-0.0668 (   858 PWs)   bands (ev):

    -3.4952   1.4955   4.6947  15.4562  16.3610  17.9156  18.5853  19.6532

     occupation numbers 
     1.0000   1.0000   1.0000   0.0000   0.0000   0.0000   0.0000   0.0000

          k =-0.1167 0.2241 0.0099 (   871 PWs)   bands (ev):

    -2.7570   3.1585   4.4696  12.3116  13.2438  16.7809  17.8845  18.7645

     occupation numbers 
     1.0000   1.0000   1.0000   0.0000   0.0000   0.0000   0.0000   0.0000

          k =-0.1145 0.2268 0.0830 (   871 PWs)   bands (ev):

    -2.6114   1.9279   5.9608  12.2661  13.2430  17.3012  17.4915  17.8485

     occupation numbers 
     1.0000   1.0000   1.0000   0.0000   0.0000   0.0000   0.0000   0.0000

          k =-0.1124 0.2296 0.1561 (   869 PWs)   bands (ev):

    -2.2592   0.6792   7.8355  12.4033  13.3863  15.8318  16.4323  17.0003

     occupation numbers 
     1.0000   1.0000   1.0000   0.0000   0.0000   0.0000   0.0000   0.0000

          k =-0.1102 0.2323 0.2292 (   874 PWs)   bands (ev):

    -1.7017  -0.3946   9.8853  12.6635  13.2022  14.2539  15.3246  16.0717

     occupation numbers 
     1.0000   1.0000   0.9998   0.0000   0.0000   0.0000   0.0000   0.0000

          k =-0.1254 0.2131-0.2825 (   871 PWs)   bands (ev):

    -1.2740  -0.9412  11.1284  12.0371  13.2881  14.3076  14.6010  15.2623

     occupation numbers 
     1.0000   1.0000   0.0000   0.0000   0.0000   0.0000   0.0000   0.0000

          k =-0.1232 0.2159-0.2094 (   867 PWs)   bands (ev):

    -1.9525   0.0183   9.0258  13.5076  13.7327  14.1190  15.0755  15.2697

     occupation numbers 
     1.0000   1.0000   1.0000   0.0000   0.0000   0.0000   0.0000   0.0000

          k =-0.1210 0.2186-0.1363 (   868 PWs)   bands (ev):

    -2.4269   1.1670   7.0466  12.9526  13.7220  14.8143  16.1054  17.0295

     occupation numbers 
     1.0000   1.0000   1.0000   0.0000   0.0000   0.0000   0.0000   0.0000

          k =-0.1189 0.2213-0.0632 (   866 PWs)   bands (ev):

    -2.6954   2.4661   5.2714  12.5421  13.4126  15.7829  17.0655  18.8805

     occupation numbers 
     1.0000   1.0000   1.0000   0.0000   0.0000   0.0000   0.0000   0.0000

          k =-0.1114 0.3676 0.0135 (   872 PWs)   bands (ev):

    -1.1396   4.6164   6.1106   8.0367  11.5421  12.9976  15.2642  16.6273

     occupation numbers 
     1.0000   1.0000   1.0000   1.0000   0.0000   0.0000   0.0000   0.0000

          k =-0.1092 0.3704 0.0866 (   873 PWs)   bands (ev):

    -0.9697   3.3420   7.5956   8.0883  11.5820  13.3633  14.7734  16.3665

     occupation numbers 
     1.0000   1.0000   1.0000   1.0000   0.0000   0.0000   0.0000   0.0000

          k =-0.1070 0.3731 0.1597 (   870 PWs)   bands (ev):

    -0.5945   2.1224   8.1121   9.5719  11.8009  12.2784  15.0620  15.9110

     occupation numbers 
     1.0000   1.0000   1.0000   1.0000   0.0000   0.0000   0.0000   0.0000

          k =-0.1049 0.3758 0.2328 (   872 PWs)   bands (ev):

    -0.0157   1.0804   8.4778  10.8480  11.8303  12.2016  14.2433  14.6829

     occupation numbers 
     1.0000   1.0000   1.0000   0.0000   0.0000   0.0000   0.0000   0.0000

          k =-0.1201 0.3566-0.2790 (   870 PWs)   bands (ev):

     0.2319   0.7643   9.0115  10.0427  12.1380  13.0428  13.1917  14.2763

     occupation numbers 
     1.0000   1.0000   1.0000   0.9226   0.0000   0.0000   0.0000   0.0000

          k =-0.1179 0.3594-0.2058 (   869 PWs)   bands (ev):

    -0.4170   1.7403   9.2495   9.5798  10.5089  12.5327  13.6977  16.2844

     occupation numbers 
     1.0000   1.0000   1.0000   1.0000   0.0000   0.0000   0.0000   0.0000

          k =-0.1157 0.3621-0.1327 (   871 PWs)   bands (ev):

    -0.8629   2.9018   8.2452   8.7044  10.7805  12.0418  14.5842  17.8468

     occupation numbers 
     1.0000   1.0000   1.0000   1.0000   0.0000   0.0000   0.0000   0.0000

          k =-0.1136 0.3649-0.0596 (   869 PWs)   bands (ev):

    -1.1042   4.1997   6.5875   8.2589  11.6318  11.9044  15.5294  16.9762

     occupation numbers 
     1.0000   1.0000   1.0000   1.0000   0.0000   0.0000   0.0000   0.0000

          k =-0.1486-0.6371-0.0115 (   871 PWs)   bands (ev):

     1.2349   4.2283   6.7753   8.4558   9.5866  10.6609  11.7338  15.8529

     occupation numbers 
     1.0000   1.0000   1.0000   1.0000   1.0000   0.0000   0.0000   0.0000

          k =-0.1465-0.6343 0.0616 (   871 PWs)   bands (ev):

     1.4263   4.2187   5.5098   9.4572  10.2159  10.7060  11.6802  15.4144

     occupation numbers 
     1.0000   1.0000   1.0000   1.0000   0.0138   0.0000   0.0000   0.0000

          k =-0.1443-0.6316 0.1347 (   869 PWs)   bands (ev):

     1.8200   4.2554   4.4860   8.3656  10.9289  11.9954  12.9548  14.5726

     occupation numbers 
     1.0000   1.0000   1.0000   1.0000   0.0000   0.0000   0.0000   0.0000

          k =-0.1421-0.6288 0.2078 (   873 PWs)   bands (ev):

     2.4136   3.3080   4.8191   7.2322  11.3659  12.9565  13.9862  15.0169

     occupation numbers 
     1.0000   1.0000   1.0000   1.0000   0.0000   0.0000   0.0000   0.0000

          k =-0.1573-0.6480-0.3040 (   873 PWs)   bands (ev):

     2.4948   3.2056   5.4014   6.2581  11.9411  12.2422  14.2307  16.0944

     occupation numbers 
     1.0000   1.0000   1.0000   1.0000   0.0000   0.0000   0.0000   0.0000

          k =-0.1551-0.6453-0.2308 (   869 PWs)   bands (ev):

     1.8785   4.1799   5.4719   6.1778  11.5857  12.0317  13.0857  16.8211

     occupation numbers 
     1.0000   1.0000   1.0000   1.0000   0.0000   0.0000   0.0000   0.0000

          k =-0.1530-0.6425-0.1577 (   866 PWs)   bands (ev):

     1.4617   4.8040   5.4139   7.1177  10.3985  11.0952  13.7227  15.3083

     occupation numbers 
     1.0000   1.0000   1.0000   1.0000   0.0000   0.0000   0.0000   0.0000

          k =-0.1508-0.6398-0.0846 (   867 PWs)   bands (ev):

     1.2468   4.4319   6.6708   8.0217   8.9845  10.7840  13.1713  15.1157

     occupation numbers 
     1.0000   1.0000   1.0000   1.0000   1.0000   0.0000   0.0000   0.0000

          k =-0.1433-0.4935-0.0079 (   870 PWs)   bands (ev):

     1.0703   4.4387   6.6594   8.2841   9.7390  10.4746  11.9811  15.7413

     occupation numbers 
     1.0000   1.0000   1.0000   1.0000   1.0000   0.0000   0.0000   0.0000

          k =-0.1411-0.4908 0.0652 (   868 PWs)   bands (ev):

     1.0882   4.6474   6.4808   8.0896   8.9734  10.5654  13.4164  15.2198

     occupation numbers 
     1.0000   1.0000   1.0000   1.0000   1.0000   0.0000   0.0000   0.0000

          k =-0.1390-0.4880 0.1383 (   868 PWs)   bands (ev):

     1.3094   4.9584   5.2896   7.2810  10.3054  10.8513  13.8109  15.5527

     occupation numbers 
     1.0000   1.0000   1.0000   1.0000   0.0004   0.0000   0.0000   0.0000

          k =-0.1368-0.4853 0.2114 (   862 PWs)   bands (ev):

     1.7328   3.9952   5.6953   6.3515  11.2839  12.0169  13.0837  16.9496

     occupation numbers 
     1.0000   1.0000   1.0000   1.0000   0.0000   0.0000   0.0000   0.0000

          k =-0.1520-0.5045-0.3004 (   868 PWs)   bands (ev):

     2.3560   3.0206   5.5840   6.4888  11.9082  11.9774  14.1709  15.9305

     occupation numbers 
     1.0000   1.0000   1.0000   1.0000   0.0000   0.0000   0.0000   0.0000

          k =-0.1498-0.5018-0.2273 (   870 PWs)   bands (ev):

     2.2331   3.1765   5.0083   7.4651  11.3605  12.6142  13.8637  14.9867

     occupation numbers 
     1.0000   1.0000   1.0000   1.0000   0.0000   0.0000   0.0000   0.0000

          k =-0.1476-0.4990-0.1542 (   874 PWs)   bands (ev):

     1.6442   4.1705   4.6429   8.5911  10.8952  11.8097  12.9208  14.3109

     occupation numbers 
     1.0000   1.0000   1.0000   1.0000   0.0000   0.0000   0.0000   0.0000

          k =-0.1455-0.4963-0.0811 (   874 PWs)   bands (ev):

     1.2559   4.4203   5.3945   9.5442  10.1612  10.6311  11.7738  15.0620

     occupation numbers 
     1.0000   1.0000   1.0000   1.0000   0.1053   0.0000   0.0000   0.0000

          k =-0.1380-0.3500-0.0044 (   868 PWs)   bands (ev):

    -1.2606   4.5354   5.9657   8.2937  11.0743  13.1822  15.4974  16.2846

     occupation numbers 
     1.0000   1.0000   1.0000   1.0000   0.0000   0.0000   0.0000   0.0000

          k =-0.1358-0.3473 0.0687 (   862 PWs)   bands (ev):

    -1.2185   4.0451   6.5249   8.5241  11.1851  12.0431  15.3668  17.1262

     occupation numbers 
     1.0000   1.0000   1.0000   1.0000   0.0000   0.0000   0.0000   0.0000

          k =-0.1336-0.3445 0.1418 (   863 PWs)   bands (ev):

    -0.9705   2.7468   8.2098   8.9640  11.0055  11.4801  14.3701  17.7981

     occupation numbers 
     1.0000   1.0000   1.0000   1.0000   0.0000   0.0000   0.0000   0.0000

          k =-0.1315-0.3418 0.2150 (   863 PWs)   bands (ev):

    -0.5179   1.5895   9.4941   9.7455  10.5613  11.9474  13.4485  16.1039

     occupation numbers 
     1.0000   1.0000   1.0000   1.0000   0.0000   0.0000   0.0000   0.0000

          k =-0.1467-0.3610-0.2968 (   867 PWs)   bands (ev):

     0.1378   0.6187   9.2458  10.3038  12.0480  12.4835  12.9951  14.0080

     occupation numbers 
     1.0000   1.0000   1.0000   0.0005   0.0000   0.0000   0.0000   0.0000

          k =-0.1445-0.3582-0.2237 (   872 PWs)   bands (ev):

    -0.1555   0.9932   8.7218  10.9652  11.7252  11.9568  13.6031  14.6607

     occupation numbers 
     1.0000   1.0000   1.0000   0.0000   0.0000   0.0000   0.0000   0.0000

          k =-0.1423-0.3555-0.1506 (   878 PWs)   bands (ev):

    -0.7282   2.0420   8.3575   9.4153  11.3928  12.5803  14.4480  15.9659

     occupation numbers 
     1.0000   1.0000   1.0000   1.0000   0.0000   0.0000   0.0000   0.0000

          k =-0.1402-0.3527-0.0775 (   872 PWs)   bands (ev):

    -1.0971   3.2677   7.4887   8.2856  11.1472  13.6289  14.8291  15.8903

     occupation numbers 
     1.0000   1.0000   1.0000   1.0000   0.0000   0.0000   0.0000   0.0000

          k =-0.1327-0.2065-0.0008 (   867 PWs)   bands (ev):

    -2.8301   3.1126   4.3750  12.2531  12.8615  17.0029  17.3861  18.5208

     occupation numbers 
     1.0000   1.0000   1.0000   0.0000   0.0000   0.0000   0.0000   0.0000

          k =-0.1305-0.2037 0.0723 (   862 PWs)   bands (ev):

    -2.7619   2.3542   5.2541  12.4045  13.0796  15.9984  16.6388  18.7259

     occupation numbers 
     1.0000   1.0000   1.0000   0.0000   0.0000   0.0000   0.0000   0.0000

          k =-0.1283-0.2010 0.1454 (   867 PWs)   bands (ev):

    -2.4867   1.0572   7.0391  12.7323  13.4561  15.0077  15.6639  16.9045

     occupation numbers 
     1.0000   1.0000   1.0000   0.0000   0.0000   0.0000   0.0000   0.0000

          k =-0.1262-0.1983 0.2185 (   861 PWs)   bands (ev):

    -2.0055  -0.0865   9.0242  13.1741  13.7536  14.1361  14.7931  14.9175

     occupation numbers 
     1.0000   1.0000   1.0000   0.0000   0.0000   0.0000   0.0000   0.0000

          k =-0.1413-0.2174-0.2932 (   865 PWs)   bands (ev):

    -1.3203  -1.0399  11.1267  11.9051  13.4164  14.0075  14.1216  15.0569

     occupation numbers 
     1.0000   1.0000   0.0000   0.0000   0.0000   0.0000   0.0000   0.0000

          k =-0.1392-0.2147-0.2201 (   867 PWs)   bands (ev):

    -1.7942  -0.4343   9.7549  12.8397  12.9112  14.0464  14.8899  15.9234

     occupation numbers 
     1.0000   1.0000   1.0000   0.0000   0.0000   0.0000   0.0000   0.0000

          k =-0.1370-0.2120-0.1470 (   864 PWs)   bands (ev):

    -2.3454   0.6460   7.7071  12.4876  12.9386  15.6760  16.1111  16.9140

     occupation numbers 
     1.0000   1.0000   1.0000   0.0000   0.0000   0.0000   0.0000   0.0000

          k =-0.1348-0.2092-0.0739 (   864 PWs)   bands (ev):

    -2.6911   1.8999   5.8371  12.2815  12.8206  16.8713  17.5114  17.7659

     occupation numbers 
     1.0000   1.0000   1.0000   0.0000   0.0000   0.0000   0.0000   0.0000

     the Fermi energy is    10.1063 ev

!    total energy              =     -15.78048046 Ry
     estimated scf accuracy    <       0.00670777 Ry
     smearing contrib. (-TS)   =      -0.00012419 Ry
     internal energy E=F+TS    =     -15.78035626 Ry

     The total energy is F=E-TS. E is the sum of the following terms:
     one-electron contribution =       8.76890868 Ry
     hartree contribution      =       0.08061471 Ry
     xc contribution           =      -4.83986267 Ry
     ewald contribution        =     -19.79001698 Ry

     convergence has been achieved in   1 iterations

     Forces acting on atoms (cartesian axes, Ry/au):

     atom    1 type  1   force =     0.00058730    0.00057423   -0.00048622
     atom    2 type  1   force =    -0.00058730   -0.00057423    0.00048622
     The non-local contrib.  to forces
     atom    1 type  1   force =    -0.00249243   -0.00453046   -0.00238450
     atom    2 type  1   force =     0.00249757    0.00453141    0.00239841
     The ionic contribution  to forces
     atom    1 type  1   force =    -0.01205759   -0.00067479    0.00120100
     atom    2 type  1   force =     0.01205759    0.00067479   -0.00120100
     The local contribution  to forces
     atom    1 type  1   force =     0.01590887    0.00606831    0.00100975
     atom    2 type  1   force =    -0.01591347   -0.00606271   -0.00102225
     The core correction contribution to forces
     atom    1 type  1   force =     0.00000000    0.00000000    0.00000000
     atom    2 type  1   force =     0.00000000    0.00000000    0.00000000
     The Hubbard contrib.    to forces
     atom    1 type  1   force =     0.00000000    0.00000000    0.00000000
     atom    2 type  1   force =     0.00000000    0.00000000    0.00000000
     The SCF correction term to forces
     atom    1 type  1   force =    -0.00077125   -0.00028557   -0.00031156
     atom    2 type  1   force =     0.00077131    0.00028556    0.00031198

     Total force =     0.001350     Total SCF correction =     0.001244
     SCF correction compared to forces is large: reduce conv_thr to get better values


     Computing stress (Cartesian axis) and pressure

          total   stress  (Ry/bohr**3)                   (kbar)     P=      -75.06
  -0.00066064   0.00001815   0.00002955          -97.18        2.67        4.35
   0.00001815  -0.00065576   0.00001751            2.67      -96.47        2.58
   0.00002955   0.00001751  -0.00021424            4.35        2.58      -31.52

     kinetic stress (kbar)   2935.10      3.28      4.75
                                3.28   2942.04      0.91
                                4.75      0.91   3017.97

     local   stress (kbar)   -902.41     88.13     10.09
                               88.13   -901.82    -72.69
                               10.09    -72.69   -624.13

     nonloc. stress (kbar)   3590.67    -15.79     -1.99
                              -15.79   3592.77     16.49
                               -1.99     16.49   3567.65

     hartree stress (kbar)     25.76     -3.93     -0.23
                               -3.93     25.61      1.49
                               -0.23      1.49      6.93

     exc-cor stress (kbar)  -1063.43      0.00      0.00
                                0.00  -1063.43      0.00
                                0.00      0.00  -1063.43

     corecor stress (kbar)      0.00      0.00      0.00
                                0.00      0.00      0.00
                                0.00      0.00      0.00

     ewald   stress (kbar)  -4682.88    -69.02     -8.28
                              -69.02  -4691.63     56.39
                               -8.28     56.39  -4936.50

     hubbard stress (kbar)      0.00      0.00      0.00
                                0.00      0.00      0.00
                                0.00      0.00      0.00

     DFT-D   stress (kbar)      0.00      0.00      0.00
                                0.00      0.00      0.00
                                0.00      0.00      0.00

     XDM     stress (kbar)      0.00      0.00      0.00
                                0.00      0.00      0.00
                                0.00      0.00      0.00

     dft-nl  stress (kbar)      0.00      0.00      0.00
                                0.00      0.00      0.00
                                0.00      0.00      0.00

     TS-vdW  stress (kbar)      0.00      0.00      0.00
                                0.00      0.00      0.00
                                0.00      0.00      0.00

     MDB     stress (kbar)      0.00      0.00      0.00
                                0.00      0.00      0.00
                                0.00      0.00      0.00

     3D-RISM stress (kbar)      0.00      0.00      0.00
                                0.00      0.00      0.00
                                0.00      0.00      0.00


     Writing all to output data dir ../tmp/Si/Si.save/ :
     XML data file, charge density, pseudopotentials, collected wavefunctions

     init_run     :      3.24s CPU      3.47s WALL (       1 calls)
     electrons    :     13.96s CPU     14.47s WALL (       1 calls)
     forces       :      0.15s CPU      0.15s WALL (       1 calls)
     stress       :      1.86s CPU      1.87s WALL (       1 calls)

     Called by init_run:
     wfcinit      :      2.89s CPU      3.10s WALL (       1 calls)
     wfcinit:atom :      0.09s CPU      0.09s WALL (     512 calls)
     wfcinit:wfcr :      2.41s CPU      2.58s WALL (     512 calls)
     potinit      :      0.01s CPU      0.02s WALL (       1 calls)
     hinit0       :      0.28s CPU      0.30s WALL (       1 calls)

     Called by electrons:
     c_bands      :     12.27s CPU     12.74s WALL (       2 calls)
     sum_band     :      1.68s CPU      1.71s WALL (       2 calls)
     v_of_rho     :      0.00s CPU      0.00s WALL (       2 calls)
     v_h          :      0.00s CPU      0.00s WALL (       2 calls)
     v_xc         :      0.00s CPU      0.00s WALL (       2 calls)
     mix_rho      :      0.00s CPU      0.00s WALL (       2 calls)

     Called by c_bands:
     init_us_2    :      0.50s CPU      0.53s WALL (    3584 calls)
     cegterg      :     12.02s CPU     12.48s WALL (    1024 calls)

     Called by sum_band:
     sum_band:wei :      0.00s CPU      0.00s WALL (       2 calls)
     sum_band:loo :      1.68s CPU      1.71s WALL (       2 calls)
     sum_band:buf :      0.02s CPU      0.02s WALL (    1024 calls)
     sum_band:ini :      0.15s CPU      0.15s WALL (    1024 calls)

     Called by *egterg:
     cdiaghg      :      0.45s CPU      0.48s WALL (    4537 calls)
     cegterg:over :      0.25s CPU      0.25s WALL (    4025 calls)
     cegterg:upda :      0.21s CPU      0.22s WALL (    4025 calls)
     cegterg:last :      0.24s CPU      0.25s WALL (    3106 calls)
     h_psi        :     12.99s CPU     13.54s WALL (    5561 calls)
     g_psi        :      0.09s CPU      0.09s WALL (    4025 calls)

     Called by h_psi:
     h_psi:calbec :      0.16s CPU      0.16s WALL (    5561 calls)
     vloc_psi     :     12.61s CPU     13.16s WALL (    5561 calls)
     add_vuspsi   :      0.15s CPU      0.15s WALL (    5561 calls)

     General routines
     calbec       :      0.21s CPU      0.21s WALL (    8121 calls)
     fft          :      0.26s CPU      0.28s WALL (      11 calls)
     ffts         :      0.00s CPU      0.00s WALL (       2 calls)
     fftw         :     12.22s CPU     12.72s WALL (   73422 calls)


     PWSCF        :     19.28s CPU     20.11s WALL


   This run was terminated on:  19: 1: 3   6May2024            

=------------------------------------------------------------------------------=
   JOB DONE.
=------------------------------------------------------------------------------=
