
     Program PWSCF v.7.3.1 starts on  6May2024 at 19: 1:16 

     This program is part of the open-source Quantum ESPRESSO suite
     for quantum simulation of materials; please cite
         "P. Giannozzi et al., J. Phys.:Condens. Matter 21 395502 (2009);
         "P. Giannozzi et al., J. Phys.:Condens. Matter 29 465901 (2017);
         "P. Giannozzi et al., J. Chem. Phys. 152 154105 (2020);
          URL http://www.quantum-espresso.org", 
     in publications or presentations arising from this work. More details at
     http://www.quantum-espresso.org/quote

     Serial version
     1913 MiB available memory on the printing compute node when the environment starts

     Reading input from Si7.pw.in

     Current dimensions of program PWSCF are:
     Max number of different atomic species (ntypx) = 10
     Max number of k-points (npk) =  40000
     Max angular momentum in pseudopotentials (lmaxx) =  4


     G-vector sticks info
     --------------------
     sticks:   dense  smooth     PW     G-vecs:    dense   smooth      PW
     Sum         255     255     91                 6073     6073    1327

     Using Slab Decomposition



     bravais-lattice index     =            0
     lattice parameter (alat)  =       4.9763  a.u.
     unit-cell volume          =     178.0285 (a.u.)^3
     number of atoms/cell      =            2
     number of atomic types    =            1
     number of electrons       =         8.00
     number of Kohn-Sham states=            8
     kinetic-energy cutoff     =      40.0000  Ry
     charge density cutoff     =     160.0000  Ry
     scf convergence threshold =      2.0E-02
     mixing beta               =       0.1000
     number of iterations used =            8  plain     mixing
     Exchange-correlation=  SLA  PZ   NOGX NOGC
                           (   1   1   0   0   0   0   0)

     celldm(1)=   4.976302  celldm(2)=   0.000000  celldm(3)=   0.000000
     celldm(4)=   0.000000  celldm(5)=   0.000000  celldm(6)=   0.000000

     crystal axes: (cart. coord. in units of alat)
               a(1) = (   0.998934   0.002421   0.046087 )  
               a(2) = (  -0.434364   0.816720  -0.049576 )  
               a(3) = (   0.050578   0.037104   1.769475 )  

     reciprocal axes: (cart. coord. in units 2 pi/alat)
               b(1) = (  1.001615  0.530286 -0.039749 )  
               b(2) = ( -0.001782  1.221910 -0.025571 )  
               b(3) = ( -0.026138  0.020423  0.565458 )  


     PseudoPot. # 1 for Si read from file:
     ../pseudo/Si.pz-vbc.UPF
     MD5 check sum: 6dfa03ddd5817404712e03e4d12deb78
     Pseudo is Norm-conserving, Zval =  4.0
     Generated by new atomic code, or converted to UPF format
     Using radial grid of  431 points,  2 beta functions with: 
                l(1) =   0
                l(2) =   1

     atomic species   valence    mass     pseudopotential
     Si                4.00    28.08600     Si( 1.00)

     No symmetry found


                                    s                        frac. trans.

      isym =  1     identity                                     

 cryst.   s( 1) = (     1          0          0      )
                  (     0          1          0      )
                  (     0          0          1      )

 cart.    s( 1) = (  1.0000000 -0.0000000 -0.0000000 )
                  ( -0.0000000  1.0000000 -0.0000000 )
                  (  0.0000000  0.0000000  1.0000000 )


   Cartesian axes

     site n.     atom                  positions (alat units)
         1        Si     tau(   1) = (   0.0560466   0.5545631   0.4246808  )
         2        Si     tau(   2) = (   0.5591015   0.3016820   1.3413058  )

   Crystallographic axes

     site n.     atom                  positions (cryst. coord.)
         1        Si     tau(   1) = (  0.3333333  0.6666667  0.2500000  )
         2        Si     tau(   2) = (  0.6666667  0.3333333  0.7500000  )

     number of k points=   512  Fermi-Dirac smearing, width (Ry)=  0.0019
                       cart. coord. in units 2pi/alat
        k(    1) = (   0.0000000   0.0000000   0.0000000), wk =   0.0039062
        k(    2) = (  -0.0032672   0.0025528   0.0706823), wk =   0.0039062
        k(    3) = (  -0.0065344   0.0051057   0.1413646), wk =   0.0039062
        k(    4) = (  -0.0098016   0.0076585   0.2120468), wk =   0.0039062
        k(    5) = (   0.0130688  -0.0102114  -0.2827291), wk =   0.0039062
        k(    6) = (   0.0098016  -0.0076585  -0.2120468), wk =   0.0039062
        k(    7) = (   0.0065344  -0.0051057  -0.1413646), wk =   0.0039062
        k(    8) = (   0.0032672  -0.0025528  -0.0706823), wk =   0.0039062
        k(    9) = (  -0.0002228   0.1527387  -0.0031964), wk =   0.0039062
        k(   10) = (  -0.0034900   0.1552916   0.0674859), wk =   0.0039062
        k(   11) = (  -0.0067572   0.1578444   0.1381682), wk =   0.0039062
        k(   12) = (  -0.0100244   0.1603972   0.2088505), wk =   0.0039062
        k(   13) = (   0.0128461   0.1425274  -0.2859255), wk =   0.0039062
        k(   14) = (   0.0095788   0.1450802  -0.2152432), wk =   0.0039062
        k(   15) = (   0.0063116   0.1476330  -0.1445609), wk =   0.0039062
        k(   16) = (   0.0030444   0.1501859  -0.0738786), wk =   0.0039062
        k(   17) = (  -0.0004455   0.3054774  -0.0063927), wk =   0.0039062
        k(   18) = (  -0.0037127   0.3080303   0.0642895), wk =   0.0039062
        k(   19) = (  -0.0069799   0.3105831   0.1349718), wk =   0.0039062
        k(   20) = (  -0.0102472   0.3131360   0.2056541), wk =   0.0039062
        k(   21) = (   0.0126233   0.2952661  -0.2891219), wk =   0.0039062
        k(   22) = (   0.0093561   0.2978189  -0.2184396), wk =   0.0039062
        k(   23) = (   0.0060889   0.3003718  -0.1477573), wk =   0.0039062
        k(   24) = (   0.0028217   0.3029246  -0.0770750), wk =   0.0039062
        k(   25) = (  -0.0006683   0.4582161  -0.0095891), wk =   0.0039062
        k(   26) = (  -0.0039355   0.4607690   0.0610932), wk =   0.0039062
        k(   27) = (  -0.0072027   0.4633218   0.1317754), wk =   0.0039062
        k(   28) = (  -0.0104699   0.4658747   0.2024577), wk =   0.0039062
        k(   29) = (   0.0124005   0.4480048  -0.2923182), wk =   0.0039062
        k(   30) = (   0.0091333   0.4505576  -0.2216359), wk =   0.0039062
        k(   31) = (   0.0058661   0.4531105  -0.1509537), wk =   0.0039062
        k(   32) = (   0.0025989   0.4556633  -0.0802714), wk =   0.0039062
        k(   33) = (   0.0008911  -0.6109549   0.0127855), wk =   0.0039062
        k(   34) = (  -0.0023761  -0.6084020   0.0834678), wk =   0.0039062
        k(   35) = (  -0.0056433  -0.6058492   0.1541500), wk =   0.0039062
        k(   36) = (  -0.0089105  -0.6032963   0.2248323), wk =   0.0039062
        k(   37) = (   0.0139599  -0.6211662  -0.2699436), wk =   0.0039062
        k(   38) = (   0.0106927  -0.6186134  -0.1992614), wk =   0.0039062
        k(   39) = (   0.0074255  -0.6160605  -0.1285791), wk =   0.0039062
        k(   40) = (   0.0041583  -0.6135077  -0.0578968), wk =   0.0039062
        k(   41) = (   0.0006683  -0.4582161   0.0095891), wk =   0.0039062
        k(   42) = (  -0.0025989  -0.4556633   0.0802714), wk =   0.0039062
        k(   43) = (  -0.0058661  -0.4531105   0.1509537), wk =   0.0039062
        k(   44) = (  -0.0091333  -0.4505576   0.2216359), wk =   0.0039062
        k(   45) = (   0.0137371  -0.4684275  -0.2731400), wk =   0.0039062
        k(   46) = (   0.0104699  -0.4658747  -0.2024577), wk =   0.0039062
        k(   47) = (   0.0072027  -0.4633218  -0.1317754), wk =   0.0039062
        k(   48) = (   0.0039355  -0.4607690  -0.0610932), wk =   0.0039062
        k(   49) = (   0.0004455  -0.3054774   0.0063927), wk =   0.0039062
        k(   50) = (  -0.0028217  -0.3029246   0.0770750), wk =   0.0039062
        k(   51) = (  -0.0060889  -0.3003718   0.1477573), wk =   0.0039062
        k(   52) = (  -0.0093561  -0.2978189   0.2184396), wk =   0.0039062
        k(   53) = (   0.0135144  -0.3156888  -0.2763364), wk =   0.0039062
        k(   54) = (   0.0102472  -0.3131360  -0.2056541), wk =   0.0039062
        k(   55) = (   0.0069799  -0.3105831  -0.1349718), wk =   0.0039062
        k(   56) = (   0.0037127  -0.3080303  -0.0642895), wk =   0.0039062
        k(   57) = (   0.0002228  -0.1527387   0.0031964), wk =   0.0039062
        k(   58) = (  -0.0030444  -0.1501859   0.0738786), wk =   0.0039062
        k(   59) = (  -0.0063116  -0.1476330   0.1445609), wk =   0.0039062
        k(   60) = (  -0.0095788  -0.1450802   0.2152432), wk =   0.0039062
        k(   61) = (   0.0132916  -0.1629501  -0.2795327), wk =   0.0039062
        k(   62) = (   0.0100244  -0.1603972  -0.2088505), wk =   0.0039062
        k(   63) = (   0.0067572  -0.1578444  -0.1381682), wk =   0.0039062
        k(   64) = (   0.0034900  -0.1552916  -0.0674859), wk =   0.0039062
        k(   65) = (   0.1252019   0.0662857  -0.0049686), wk =   0.0039062
        k(   66) = (   0.1219347   0.0688385   0.0657137), wk =   0.0039062
        k(   67) = (   0.1186675   0.0713914   0.1363959), wk =   0.0039062
        k(   68) = (   0.1154003   0.0739442   0.2070782), wk =   0.0039062
        k(   69) = (   0.1382707   0.0560743  -0.2876977), wk =   0.0039062
        k(   70) = (   0.1350035   0.0586272  -0.2170155), wk =   0.0039062
        k(   71) = (   0.1317363   0.0611800  -0.1463332), wk =   0.0039062
        k(   72) = (   0.1284691   0.0637329  -0.0756509), wk =   0.0039062
        k(   73) = (   0.1249791   0.2190244  -0.0081650), wk =   0.0039062
        k(   74) = (   0.1217119   0.2215773   0.0625173), wk =   0.0039062
        k(   75) = (   0.1184447   0.2241301   0.1331996), wk =   0.0039062
        k(   76) = (   0.1151775   0.2266829   0.2038818), wk =   0.0039062
        k(   77) = (   0.1380479   0.2088131  -0.2908941), wk =   0.0039062
        k(   78) = (   0.1347807   0.2113659  -0.2202118), wk =   0.0039062
        k(   79) = (   0.1315135   0.2139187  -0.1495296), wk =   0.0039062
        k(   80) = (   0.1282463   0.2164716  -0.0788473), wk =   0.0039062
        k(   81) = (   0.1247564   0.3717631  -0.0113614), wk =   0.0039062
        k(   82) = (   0.1214891   0.3743160   0.0593209), wk =   0.0039062
        k(   83) = (   0.1182219   0.3768688   0.1300032), wk =   0.0039062
        k(   84) = (   0.1149547   0.3794217   0.2006855), wk =   0.0039062
        k(   85) = (   0.1378252   0.3615518  -0.2940905), wk =   0.0039062
        k(   86) = (   0.1345580   0.3641046  -0.2234082), wk =   0.0039062
        k(   87) = (   0.1312908   0.3666575  -0.1527259), wk =   0.0039062
        k(   88) = (   0.1280236   0.3692103  -0.0820436), wk =   0.0039062
        k(   89) = (   0.1245336   0.5245019  -0.0145577), wk =   0.0039062
        k(   90) = (   0.1212664   0.5270547   0.0561245), wk =   0.0039062
        k(   91) = (   0.1179992   0.5296075   0.1268068), wk =   0.0039062
        k(   92) = (   0.1147320   0.5321604   0.1974891), wk =   0.0039062
        k(   93) = (   0.1376024   0.5142905  -0.2972868), wk =   0.0039062
        k(   94) = (   0.1343352   0.5168433  -0.2266046), wk =   0.0039062
        k(   95) = (   0.1310680   0.5193962  -0.1559223), wk =   0.0039062
        k(   96) = (   0.1278008   0.5219490  -0.0852400), wk =   0.0039062
        k(   97) = (   0.1260930  -0.5446692   0.0078169), wk =   0.0039062
        k(   98) = (   0.1228258  -0.5421163   0.0784991), wk =   0.0039062
        k(   99) = (   0.1195586  -0.5395635   0.1491814), wk =   0.0039062
        k(  100) = (   0.1162913  -0.5370106   0.2198637), wk =   0.0039062
        k(  101) = (   0.1391618  -0.5548805  -0.2749123), wk =   0.0039062
        k(  102) = (   0.1358946  -0.5523277  -0.2042300), wk =   0.0039062
        k(  103) = (   0.1326274  -0.5497748  -0.1335477), wk =   0.0039062
        k(  104) = (   0.1293602  -0.5472220  -0.0628654), wk =   0.0039062
        k(  105) = (   0.1258702  -0.3919304   0.0046205), wk =   0.0039062
        k(  106) = (   0.1226030  -0.3893776   0.0753028), wk =   0.0039062
        k(  107) = (   0.1193358  -0.3868248   0.1459850), wk =   0.0039062
        k(  108) = (   0.1160686  -0.3842719   0.2166673), wk =   0.0039062
        k(  109) = (   0.1389390  -0.4021418  -0.2781086), wk =   0.0039062
        k(  110) = (   0.1356718  -0.3995890  -0.2074263), wk =   0.0039062
        k(  111) = (   0.1324046  -0.3970361  -0.1367441), wk =   0.0039062
        k(  112) = (   0.1291374  -0.3944833  -0.0660618), wk =   0.0039062
        k(  113) = (   0.1256474  -0.2391917   0.0014241), wk =   0.0039062
        k(  114) = (   0.1223802  -0.2366389   0.0721064), wk =   0.0039062
        k(  115) = (   0.1191130  -0.2340860   0.1427887), wk =   0.0039062
        k(  116) = (   0.1158458  -0.2315332   0.2134710), wk =   0.0039062
        k(  117) = (   0.1387162  -0.2494031  -0.2813050), wk =   0.0039062
        k(  118) = (   0.1354490  -0.2468502  -0.2106227), wk =   0.0039062
        k(  119) = (   0.1321818  -0.2442974  -0.1399404), wk =   0.0039062
        k(  120) = (   0.1289146  -0.2417446  -0.0692582), wk =   0.0039062
        k(  121) = (   0.1254247  -0.0864530  -0.0017723), wk =   0.0039062
        k(  122) = (   0.1221575  -0.0839002   0.0689100), wk =   0.0039062
        k(  123) = (   0.1188902  -0.0813473   0.1395923), wk =   0.0039062
        k(  124) = (   0.1156230  -0.0787945   0.2102746), wk =   0.0039062
        k(  125) = (   0.1384935  -0.0966644  -0.2845014), wk =   0.0039062
        k(  126) = (   0.1352263  -0.0941115  -0.2138191), wk =   0.0039062
        k(  127) = (   0.1319591  -0.0915587  -0.1431368), wk =   0.0039062
        k(  128) = (   0.1286919  -0.0890059  -0.0724545), wk =   0.0039062
        k(  129) = (   0.2504038   0.1325714  -0.0099372), wk =   0.0039062
        k(  130) = (   0.2471366   0.1351242   0.0607450), wk =   0.0039062
        k(  131) = (   0.2438694   0.1376771   0.1314273), wk =   0.0039062
        k(  132) = (   0.2406022   0.1402299   0.2021096), wk =   0.0039062
        k(  133) = (   0.2634726   0.1223600  -0.2926664), wk =   0.0039062
        k(  134) = (   0.2602054   0.1249129  -0.2219841), wk =   0.0039062
        k(  135) = (   0.2569382   0.1274657  -0.1513018), wk =   0.0039062
        k(  136) = (   0.2536710   0.1300186  -0.0806195), wk =   0.0039062
        k(  137) = (   0.2501810   0.2853101  -0.0131336), wk =   0.0039062
        k(  138) = (   0.2469138   0.2878630   0.0575487), wk =   0.0039062
        k(  139) = (   0.2436466   0.2904158   0.1282309), wk =   0.0039062
        k(  140) = (   0.2403794   0.2929686   0.1989132), wk =   0.0039062
        k(  141) = (   0.2632498   0.2750988  -0.2958627), wk =   0.0039062
        k(  142) = (   0.2599826   0.2776516  -0.2251805), wk =   0.0039062
        k(  143) = (   0.2567154   0.2802044  -0.1544982), wk =   0.0039062
        k(  144) = (   0.2534482   0.2827573  -0.0838159), wk =   0.0039062
        k(  145) = (   0.2499582   0.4380488  -0.0163300), wk =   0.0039062
        k(  146) = (   0.2466910   0.4406017   0.0543523), wk =   0.0039062
        k(  147) = (   0.2434238   0.4431545   0.1250346), wk =   0.0039062
        k(  148) = (   0.2401566   0.4457074   0.1957169), wk =   0.0039062
        k(  149) = (   0.2630271   0.4278375  -0.2990591), wk =   0.0039062
        k(  150) = (   0.2597599   0.4303903  -0.2283768), wk =   0.0039062
        k(  151) = (   0.2564927   0.4329432  -0.1576945), wk =   0.0039062
        k(  152) = (   0.2532254   0.4354960  -0.0870123), wk =   0.0039062
        k(  153) = (   0.2497355   0.5907876  -0.0195264), wk =   0.0039062
        k(  154) = (   0.2464683   0.5933404   0.0511559), wk =   0.0039062
        k(  155) = (   0.2432011   0.5958932   0.1218382), wk =   0.0039062
        k(  156) = (   0.2399339   0.5984461   0.1925205), wk =   0.0039062
        k(  157) = (   0.2628043   0.5805762  -0.3022555), wk =   0.0039062
        k(  158) = (   0.2595371   0.5831290  -0.2315732), wk =   0.0039062
        k(  159) = (   0.2562699   0.5856819  -0.1608909), wk =   0.0039062
        k(  160) = (   0.2530027   0.5882347  -0.0902086), wk =   0.0039062
        k(  161) = (   0.2512949  -0.4783835   0.0028482), wk =   0.0039062
        k(  162) = (   0.2480276  -0.4758306   0.0735305), wk =   0.0039062
        k(  163) = (   0.2447604  -0.4732778   0.1442128), wk =   0.0039062
        k(  164) = (   0.2414932  -0.4707249   0.2148951), wk =   0.0039062
        k(  165) = (   0.2643637  -0.4885948  -0.2798809), wk =   0.0039062
        k(  166) = (   0.2610965  -0.4860420  -0.2091986), wk =   0.0039062
        k(  167) = (   0.2578293  -0.4834891  -0.1385163), wk =   0.0039062
        k(  168) = (   0.2545621  -0.4809363  -0.0678340), wk =   0.0039062
        k(  169) = (   0.2510721  -0.3256447  -0.0003481), wk =   0.0039062
        k(  170) = (   0.2478049  -0.3230919   0.0703341), wk =   0.0039062
        k(  171) = (   0.2445377  -0.3205391   0.1410164), wk =   0.0039062
        k(  172) = (   0.2412705  -0.3179862   0.2116987), wk =   0.0039062
        k(  173) = (   0.2641409  -0.3358561  -0.2830772), wk =   0.0039062
        k(  174) = (   0.2608737  -0.3333033  -0.2123950), wk =   0.0039062
        k(  175) = (   0.2576065  -0.3307504  -0.1417127), wk =   0.0039062
        k(  176) = (   0.2543393  -0.3281976  -0.0710304), wk =   0.0039062
        k(  177) = (   0.2508493  -0.1729060  -0.0035445), wk =   0.0039062
        k(  178) = (   0.2475821  -0.1703532   0.0671378), wk =   0.0039062
        k(  179) = (   0.2443149  -0.1678003   0.1378201), wk =   0.0039062
        k(  180) = (   0.2410477  -0.1652475   0.2085023), wk =   0.0039062
        k(  181) = (   0.2639181  -0.1831174  -0.2862736), wk =   0.0039062
        k(  182) = (   0.2606509  -0.1805645  -0.2155913), wk =   0.0039062
        k(  183) = (   0.2573837  -0.1780117  -0.1449091), wk =   0.0039062
        k(  184) = (   0.2541165  -0.1754589  -0.0742268), wk =   0.0039062
        k(  185) = (   0.2506265  -0.0201673  -0.0067409), wk =   0.0039062
        k(  186) = (   0.2473593  -0.0176145   0.0639414), wk =   0.0039062
        k(  187) = (   0.2440921  -0.0150616   0.1346237), wk =   0.0039062
        k(  188) = (   0.2408249  -0.0125088   0.2053060), wk =   0.0039062
        k(  189) = (   0.2636954  -0.0303787  -0.2894700), wk =   0.0039062
        k(  190) = (   0.2604282  -0.0278258  -0.2187877), wk =   0.0039062
        k(  191) = (   0.2571610  -0.0252730  -0.1481054), wk =   0.0039062
        k(  192) = (   0.2538938  -0.0227201  -0.0774232), wk =   0.0039062
        k(  193) = (   0.3756057   0.1988571  -0.0149059), wk =   0.0039062
        k(  194) = (   0.3723385   0.2014100   0.0557764), wk =   0.0039062
        k(  195) = (   0.3690713   0.2039628   0.1264587), wk =   0.0039062
        k(  196) = (   0.3658040   0.2065156   0.1971410), wk =   0.0039062
        k(  197) = (   0.3886745   0.1886458  -0.2976350), wk =   0.0039062
        k(  198) = (   0.3854073   0.1911986  -0.2269527), wk =   0.0039062
        k(  199) = (   0.3821401   0.1937514  -0.1562704), wk =   0.0039062
        k(  200) = (   0.3788729   0.1963043  -0.0855881), wk =   0.0039062
        k(  201) = (   0.3753829   0.3515958  -0.0181022), wk =   0.0039062
        k(  202) = (   0.3721157   0.3541487   0.0525800), wk =   0.0039062
        k(  203) = (   0.3688485   0.3567015   0.1232623), wk =   0.0039062
        k(  204) = (   0.3655813   0.3592543   0.1939446), wk =   0.0039062
        k(  205) = (   0.3884517   0.3413845  -0.3008314), wk =   0.0039062
        k(  206) = (   0.3851845   0.3439373  -0.2301491), wk =   0.0039062
        k(  207) = (   0.3819173   0.3464901  -0.1594668), wk =   0.0039062
        k(  208) = (   0.3786501   0.3490430  -0.0887845), wk =   0.0039062
        k(  209) = (   0.3751601   0.5043345  -0.0212986), wk =   0.0039062
        k(  210) = (   0.3718929   0.5068874   0.0493837), wk =   0.0039062
        k(  211) = (   0.3686257   0.5094402   0.1200660), wk =   0.0039062
        k(  212) = (   0.3653585   0.5119931   0.1907482), wk =   0.0039062
        k(  213) = (   0.3882289   0.4941232  -0.3040277), wk =   0.0039062
        k(  214) = (   0.3849617   0.4966760  -0.2333454), wk =   0.0039062
        k(  215) = (   0.3816945   0.4992289  -0.1626632), wk =   0.0039062
        k(  216) = (   0.3784273   0.5017817  -0.0919809), wk =   0.0039062
        k(  217) = (   0.3749374   0.6570733  -0.0244950), wk =   0.0039062
        k(  218) = (   0.3716702   0.6596261   0.0461873), wk =   0.0039062
        k(  219) = (   0.3684029   0.6621789   0.1168696), wk =   0.0039062
        k(  220) = (   0.3651357   0.6647318   0.1875519), wk =   0.0039062
        k(  221) = (   0.3880062   0.6468619  -0.3072241), wk =   0.0039062
        k(  222) = (   0.3847390   0.6494147  -0.2365418), wk =   0.0039062
        k(  223) = (   0.3814718   0.6519676  -0.1658595), wk =   0.0039062
        k(  224) = (   0.3782046   0.6545204  -0.0951773), wk =   0.0039062
        k(  225) = (   0.3764967  -0.4120978  -0.0021204), wk =   0.0039062
        k(  226) = (   0.3732295  -0.4095449   0.0685619), wk =   0.0039062
        k(  227) = (   0.3699623  -0.4069921   0.1392442), wk =   0.0039062
        k(  228) = (   0.3666951  -0.4044392   0.2099265), wk =   0.0039062
        k(  229) = (   0.3895656  -0.4223091  -0.2848495), wk =   0.0039062
        k(  230) = (   0.3862984  -0.4197563  -0.2141672), wk =   0.0039062
        k(  231) = (   0.3830312  -0.4172034  -0.1434849), wk =   0.0039062
        k(  232) = (   0.3797639  -0.4146506  -0.0728027), wk =   0.0039062
        k(  233) = (   0.3762740  -0.2593590  -0.0053168), wk =   0.0039062
        k(  234) = (   0.3730068  -0.2568062   0.0653655), wk =   0.0039062
        k(  235) = (   0.3697396  -0.2542534   0.1360478), wk =   0.0039062
        k(  236) = (   0.3664724  -0.2517005   0.2067301), wk =   0.0039062
        k(  237) = (   0.3893428  -0.2695704  -0.2880459), wk =   0.0039062
        k(  238) = (   0.3860756  -0.2670176  -0.2173636), wk =   0.0039062
        k(  239) = (   0.3828084  -0.2644647  -0.1466813), wk =   0.0039062
        k(  240) = (   0.3795412  -0.2619119  -0.0759990), wk =   0.0039062
        k(  241) = (   0.3760512  -0.1066203  -0.0085131), wk =   0.0039062
        k(  242) = (   0.3727840  -0.1040675   0.0621692), wk =   0.0039062
        k(  243) = (   0.3695168  -0.1015146   0.1328514), wk =   0.0039062
        k(  244) = (   0.3662496  -0.0989618   0.2035337), wk =   0.0039062
        k(  245) = (   0.3891200  -0.1168317  -0.2912422), wk =   0.0039062
        k(  246) = (   0.3858528  -0.1142788  -0.2205600), wk =   0.0039062
        k(  247) = (   0.3825856  -0.1117260  -0.1498777), wk =   0.0039062
        k(  248) = (   0.3793184  -0.1091732  -0.0791954), wk =   0.0039062
        k(  249) = (   0.3758284   0.0461184  -0.0117095), wk =   0.0039062
        k(  250) = (   0.3725612   0.0486712   0.0589728), wk =   0.0039062
        k(  251) = (   0.3692940   0.0512241   0.1296551), wk =   0.0039062
        k(  252) = (   0.3660268   0.0537769   0.2003373), wk =   0.0039062
        k(  253) = (   0.3888973   0.0359070  -0.2944386), wk =   0.0039062
        k(  254) = (   0.3856301   0.0384599  -0.2237563), wk =   0.0039062
        k(  255) = (   0.3823628   0.0410127  -0.1530741), wk =   0.0039062
        k(  256) = (   0.3790956   0.0435656  -0.0823918), wk =   0.0039062
        k(  257) = (  -0.5008076  -0.2651428   0.0198745), wk =   0.0039062
        k(  258) = (  -0.5040748  -0.2625900   0.0905568), wk =   0.0039062
        k(  259) = (  -0.5073420  -0.2600371   0.1612390), wk =   0.0039062
        k(  260) = (  -0.5106092  -0.2574843   0.2319213), wk =   0.0039062
        k(  261) = (  -0.4877387  -0.2753542  -0.2628546), wk =   0.0039062
        k(  262) = (  -0.4910059  -0.2728013  -0.1921724), wk =   0.0039062
        k(  263) = (  -0.4942731  -0.2702485  -0.1214901), wk =   0.0039062
        k(  264) = (  -0.4975403  -0.2676957  -0.0508078), wk =   0.0039062
        k(  265) = (  -0.5010303  -0.1124041   0.0166781), wk =   0.0039062
        k(  266) = (  -0.5042975  -0.1098513   0.0873604), wk =   0.0039062
        k(  267) = (  -0.5075647  -0.1072984   0.1580427), wk =   0.0039062
        k(  268) = (  -0.5108319  -0.1047456   0.2287250), wk =   0.0039062
        k(  269) = (  -0.4879615  -0.1226155  -0.2660510), wk =   0.0039062
        k(  270) = (  -0.4912287  -0.1200626  -0.1953687), wk =   0.0039062
        k(  271) = (  -0.4944959  -0.1175098  -0.1246864), wk =   0.0039062
        k(  272) = (  -0.4977631  -0.1149569  -0.0540042), wk =   0.0039062
        k(  273) = (  -0.5012531   0.0403346   0.0134817), wk =   0.0039062
        k(  274) = (  -0.5045203   0.0428875   0.0841640), wk =   0.0039062
        k(  275) = (  -0.5077875   0.0454403   0.1548463), wk =   0.0039062
        k(  276) = (  -0.5110547   0.0479931   0.2255286), wk =   0.0039062
        k(  277) = (  -0.4881843   0.0301233  -0.2692474), wk =   0.0039062
        k(  278) = (  -0.4914515   0.0326761  -0.1985651), wk =   0.0039062
        k(  279) = (  -0.4947187   0.0352289  -0.1278828), wk =   0.0039062
        k(  280) = (  -0.4979859   0.0377818  -0.0572005), wk =   0.0039062
        k(  281) = (  -0.5014759   0.1930733   0.0102854), wk =   0.0039062
        k(  282) = (  -0.5047431   0.1956262   0.0809677), wk =   0.0039062
        k(  283) = (  -0.5080103   0.1981790   0.1516499), wk =   0.0039062
        k(  284) = (  -0.5112775   0.2007319   0.2223322), wk =   0.0039062
        k(  285) = (  -0.4884070   0.1828620  -0.2724437), wk =   0.0039062
        k(  286) = (  -0.4916742   0.1854148  -0.2017615), wk =   0.0039062
        k(  287) = (  -0.4949414   0.1879676  -0.1310792), wk =   0.0039062
        k(  288) = (  -0.4982087   0.1905205  -0.0603969), wk =   0.0039062
        k(  289) = (  -0.4999165  -0.8760977   0.0326600), wk =   0.0039062
        k(  290) = (  -0.5031837  -0.8735448   0.1033422), wk =   0.0039062
        k(  291) = (  -0.5064509  -0.8709920   0.1740245), wk =   0.0039062
        k(  292) = (  -0.5097181  -0.8684392   0.2447068), wk =   0.0039062
        k(  293) = (  -0.4868477  -0.8863090  -0.2500692), wk =   0.0039062
        k(  294) = (  -0.4901149  -0.8837562  -0.1793869), wk =   0.0039062
        k(  295) = (  -0.4933821  -0.8812034  -0.1087046), wk =   0.0039062
        k(  296) = (  -0.4966493  -0.8786505  -0.0380223), wk =   0.0039062
        k(  297) = (  -0.5001392  -0.7233590   0.0294636), wk =   0.0039062
        k(  298) = (  -0.5034065  -0.7208061   0.1001459), wk =   0.0039062
        k(  299) = (  -0.5066737  -0.7182533   0.1708282), wk =   0.0039062
        k(  300) = (  -0.5099409  -0.7157004   0.2415104), wk =   0.0039062
        k(  301) = (  -0.4870704  -0.7335703  -0.2532655), wk =   0.0039062
        k(  302) = (  -0.4903376  -0.7310175  -0.1825832), wk =   0.0039062
        k(  303) = (  -0.4936048  -0.7284646  -0.1119010), wk =   0.0039062
        k(  304) = (  -0.4968720  -0.7259118  -0.0412187), wk =   0.0039062
        k(  305) = (  -0.5003620  -0.5706202   0.0262672), wk =   0.0039062
        k(  306) = (  -0.5036292  -0.5680674   0.0969495), wk =   0.0039062
        k(  307) = (  -0.5068964  -0.5655146   0.1676318), wk =   0.0039062
        k(  308) = (  -0.5101636  -0.5629617   0.2383141), wk =   0.0039062
        k(  309) = (  -0.4872932  -0.5808316  -0.2564619), wk =   0.0039062
        k(  310) = (  -0.4905604  -0.5782788  -0.1857796), wk =   0.0039062
        k(  311) = (  -0.4938276  -0.5757259  -0.1150973), wk =   0.0039062
        k(  312) = (  -0.4970948  -0.5731731  -0.0444151), wk =   0.0039062
        k(  313) = (  -0.5005848  -0.4178815   0.0230709), wk =   0.0039062
        k(  314) = (  -0.5038520  -0.4153287   0.0937531), wk =   0.0039062
        k(  315) = (  -0.5071192  -0.4127759   0.1644354), wk =   0.0039062
        k(  316) = (  -0.5103864  -0.4102230   0.2351177), wk =   0.0039062
        k(  317) = (  -0.4875160  -0.4280929  -0.2596583), wk =   0.0039062
        k(  318) = (  -0.4907832  -0.4255401  -0.1889760), wk =   0.0039062
        k(  319) = (  -0.4940504  -0.4229872  -0.1182937), wk =   0.0039062
        k(  320) = (  -0.4973176  -0.4204344  -0.0476114), wk =   0.0039062
        k(  321) = (  -0.3756057  -0.1988571   0.0149059), wk =   0.0039062
        k(  322) = (  -0.3788729  -0.1963043   0.0855881), wk =   0.0039062
        k(  323) = (  -0.3821401  -0.1937514   0.1562704), wk =   0.0039062
        k(  324) = (  -0.3854073  -0.1911986   0.2269527), wk =   0.0039062
        k(  325) = (  -0.3625368  -0.2090685  -0.2678233), wk =   0.0039062
        k(  326) = (  -0.3658040  -0.2065156  -0.1971410), wk =   0.0039062
        k(  327) = (  -0.3690713  -0.2039628  -0.1264587), wk =   0.0039062
        k(  328) = (  -0.3723385  -0.2014100  -0.0557764), wk =   0.0039062
        k(  329) = (  -0.3758284  -0.0461184   0.0117095), wk =   0.0039062
        k(  330) = (  -0.3790956  -0.0435656   0.0823918), wk =   0.0039062
        k(  331) = (  -0.3823628  -0.0410127   0.1530741), wk =   0.0039062
        k(  332) = (  -0.3856301  -0.0384599   0.2237563), wk =   0.0039062
        k(  333) = (  -0.3627596  -0.0563298  -0.2710196), wk =   0.0039062
        k(  334) = (  -0.3660268  -0.0537769  -0.2003373), wk =   0.0039062
        k(  335) = (  -0.3692940  -0.0512241  -0.1296551), wk =   0.0039062
        k(  336) = (  -0.3725612  -0.0486712  -0.0589728), wk =   0.0039062
        k(  337) = (  -0.3760512   0.1066203   0.0085131), wk =   0.0039062
        k(  338) = (  -0.3793184   0.1091732   0.0791954), wk =   0.0039062
        k(  339) = (  -0.3825856   0.1117260   0.1498777), wk =   0.0039062
        k(  340) = (  -0.3858528   0.1142788   0.2205600), wk =   0.0039062
        k(  341) = (  -0.3629824   0.0964090  -0.2742160), wk =   0.0039062
        k(  342) = (  -0.3662496   0.0989618  -0.2035337), wk =   0.0039062
        k(  343) = (  -0.3695168   0.1015146  -0.1328514), wk =   0.0039062
        k(  344) = (  -0.3727840   0.1040675  -0.0621692), wk =   0.0039062
        k(  345) = (  -0.3762740   0.2593590   0.0053168), wk =   0.0039062
        k(  346) = (  -0.3795412   0.2619119   0.0759990), wk =   0.0039062
        k(  347) = (  -0.3828084   0.2644647   0.1466813), wk =   0.0039062
        k(  348) = (  -0.3860756   0.2670176   0.2173636), wk =   0.0039062
        k(  349) = (  -0.3632052   0.2491477  -0.2774124), wk =   0.0039062
        k(  350) = (  -0.3664724   0.2517005  -0.2067301), wk =   0.0039062
        k(  351) = (  -0.3697396   0.2542534  -0.1360478), wk =   0.0039062
        k(  352) = (  -0.3730068   0.2568062  -0.0653655), wk =   0.0039062
        k(  353) = (  -0.3747146  -0.8098120   0.0276913), wk =   0.0039062
        k(  354) = (  -0.3779818  -0.8072591   0.0983736), wk =   0.0039062
        k(  355) = (  -0.3812490  -0.8047063   0.1690559), wk =   0.0039062
        k(  356) = (  -0.3845162  -0.8021535   0.2397382), wk =   0.0039062
        k(  357) = (  -0.3616458  -0.8200233  -0.2550378), wk =   0.0039062
        k(  358) = (  -0.3649130  -0.8174705  -0.1843555), wk =   0.0039062
        k(  359) = (  -0.3681802  -0.8149177  -0.1136732), wk =   0.0039062
        k(  360) = (  -0.3714474  -0.8123648  -0.0429909), wk =   0.0039062
        k(  361) = (  -0.3749374  -0.6570733   0.0244950), wk =   0.0039062
        k(  362) = (  -0.3782046  -0.6545204   0.0951773), wk =   0.0039062
        k(  363) = (  -0.3814718  -0.6519676   0.1658595), wk =   0.0039062
        k(  364) = (  -0.3847390  -0.6494147   0.2365418), wk =   0.0039062
        k(  365) = (  -0.3618685  -0.6672846  -0.2582341), wk =   0.0039062
        k(  366) = (  -0.3651357  -0.6647318  -0.1875519), wk =   0.0039062
        k(  367) = (  -0.3684029  -0.6621789  -0.1168696), wk =   0.0039062
        k(  368) = (  -0.3716702  -0.6596261  -0.0461873), wk =   0.0039062
        k(  369) = (  -0.3751601  -0.5043345   0.0212986), wk =   0.0039062
        k(  370) = (  -0.3784273  -0.5017817   0.0919809), wk =   0.0039062
        k(  371) = (  -0.3816945  -0.4992289   0.1626632), wk =   0.0039062
        k(  372) = (  -0.3849617  -0.4966760   0.2333454), wk =   0.0039062
        k(  373) = (  -0.3620913  -0.5145459  -0.2614305), wk =   0.0039062
        k(  374) = (  -0.3653585  -0.5119931  -0.1907482), wk =   0.0039062
        k(  375) = (  -0.3686257  -0.5094402  -0.1200660), wk =   0.0039062
        k(  376) = (  -0.3718929  -0.5068874  -0.0493837), wk =   0.0039062
        k(  377) = (  -0.3753829  -0.3515958   0.0181022), wk =   0.0039062
        k(  378) = (  -0.3786501  -0.3490430   0.0887845), wk =   0.0039062
        k(  379) = (  -0.3819173  -0.3464901   0.1594668), wk =   0.0039062
        k(  380) = (  -0.3851845  -0.3439373   0.2301491), wk =   0.0039062
        k(  381) = (  -0.3623141  -0.3618072  -0.2646269), wk =   0.0039062
        k(  382) = (  -0.3655813  -0.3592543  -0.1939446), wk =   0.0039062
        k(  383) = (  -0.3688485  -0.3567015  -0.1232623), wk =   0.0039062
        k(  384) = (  -0.3721157  -0.3541487  -0.0525800), wk =   0.0039062
        k(  385) = (  -0.2504038  -0.1325714   0.0099372), wk =   0.0039062
        k(  386) = (  -0.2536710  -0.1300186   0.0806195), wk =   0.0039062
        k(  387) = (  -0.2569382  -0.1274657   0.1513018), wk =   0.0039062
        k(  388) = (  -0.2602054  -0.1249129   0.2219841), wk =   0.0039062
        k(  389) = (  -0.2373350  -0.1427828  -0.2727919), wk =   0.0039062
        k(  390) = (  -0.2406022  -0.1402299  -0.2021096), wk =   0.0039062
        k(  391) = (  -0.2438694  -0.1376771  -0.1314273), wk =   0.0039062
        k(  392) = (  -0.2471366  -0.1351242  -0.0607450), wk =   0.0039062
        k(  393) = (  -0.2506265   0.0201673   0.0067409), wk =   0.0039062
        k(  394) = (  -0.2538938   0.0227201   0.0774232), wk =   0.0039062
        k(  395) = (  -0.2571610   0.0252730   0.1481054), wk =   0.0039062
        k(  396) = (  -0.2604282   0.0278258   0.2187877), wk =   0.0039062
        k(  397) = (  -0.2375577   0.0099559  -0.2759882), wk =   0.0039062
        k(  398) = (  -0.2408249   0.0125088  -0.2053060), wk =   0.0039062
        k(  399) = (  -0.2440921   0.0150616  -0.1346237), wk =   0.0039062
        k(  400) = (  -0.2473593   0.0176145  -0.0639414), wk =   0.0039062
        k(  401) = (  -0.2508493   0.1729060   0.0035445), wk =   0.0039062
        k(  402) = (  -0.2541165   0.1754589   0.0742268), wk =   0.0039062
        k(  403) = (  -0.2573837   0.1780117   0.1449091), wk =   0.0039062
        k(  404) = (  -0.2606509   0.1805645   0.2155913), wk =   0.0039062
        k(  405) = (  -0.2377805   0.1626947  -0.2791846), wk =   0.0039062
        k(  406) = (  -0.2410477   0.1652475  -0.2085023), wk =   0.0039062
        k(  407) = (  -0.2443149   0.1678003  -0.1378201), wk =   0.0039062
        k(  408) = (  -0.2475821   0.1703532  -0.0671378), wk =   0.0039062
        k(  409) = (  -0.2510721   0.3256447   0.0003481), wk =   0.0039062
        k(  410) = (  -0.2543393   0.3281976   0.0710304), wk =   0.0039062
        k(  411) = (  -0.2576065   0.3307504   0.1417127), wk =   0.0039062
        k(  412) = (  -0.2608737   0.3333033   0.2123950), wk =   0.0039062
        k(  413) = (  -0.2380033   0.3154334  -0.2823810), wk =   0.0039062
        k(  414) = (  -0.2412705   0.3179862  -0.2116987), wk =   0.0039062
        k(  415) = (  -0.2445377   0.3205391  -0.1410164), wk =   0.0039062
        k(  416) = (  -0.2478049   0.3230919  -0.0703341), wk =   0.0039062
        k(  417) = (  -0.2495127  -0.7435263   0.0227227), wk =   0.0039062
        k(  418) = (  -0.2527799  -0.7409734   0.0934050), wk =   0.0039062
        k(  419) = (  -0.2560471  -0.7384206   0.1640873), wk =   0.0039062
        k(  420) = (  -0.2593143  -0.7358677   0.2347696), wk =   0.0039062
        k(  421) = (  -0.2364439  -0.7537376  -0.2600064), wk =   0.0039062
        k(  422) = (  -0.2397111  -0.7511848  -0.1893241), wk =   0.0039062
        k(  423) = (  -0.2429783  -0.7486320  -0.1186418), wk =   0.0039062
        k(  424) = (  -0.2462455  -0.7460791  -0.0479596), wk =   0.0039062
        k(  425) = (  -0.2497355  -0.5907876   0.0195264), wk =   0.0039062
        k(  426) = (  -0.2530027  -0.5882347   0.0902086), wk =   0.0039062
        k(  427) = (  -0.2562699  -0.5856819   0.1608909), wk =   0.0039062
        k(  428) = (  -0.2595371  -0.5831290   0.2315732), wk =   0.0039062
        k(  429) = (  -0.2366666  -0.6009989  -0.2632028), wk =   0.0039062
        k(  430) = (  -0.2399339  -0.5984461  -0.1925205), wk =   0.0039062
        k(  431) = (  -0.2432011  -0.5958932  -0.1218382), wk =   0.0039062
        k(  432) = (  -0.2464683  -0.5933404  -0.0511559), wk =   0.0039062
        k(  433) = (  -0.2499582  -0.4380488   0.0163300), wk =   0.0039062
        k(  434) = (  -0.2532254  -0.4354960   0.0870123), wk =   0.0039062
        k(  435) = (  -0.2564927  -0.4329432   0.1576945), wk =   0.0039062
        k(  436) = (  -0.2597599  -0.4303903   0.2283768), wk =   0.0039062
        k(  437) = (  -0.2368894  -0.4482602  -0.2663991), wk =   0.0039062
        k(  438) = (  -0.2401566  -0.4457074  -0.1957169), wk =   0.0039062
        k(  439) = (  -0.2434238  -0.4431545  -0.1250346), wk =   0.0039062
        k(  440) = (  -0.2466910  -0.4406017  -0.0543523), wk =   0.0039062
        k(  441) = (  -0.2501810  -0.2853101   0.0131336), wk =   0.0039062
        k(  442) = (  -0.2534482  -0.2827573   0.0838159), wk =   0.0039062
        k(  443) = (  -0.2567154  -0.2802044   0.1544982), wk =   0.0039062
        k(  444) = (  -0.2599826  -0.2776516   0.2251805), wk =   0.0039062
        k(  445) = (  -0.2371122  -0.2955215  -0.2695955), wk =   0.0039062
        k(  446) = (  -0.2403794  -0.2929686  -0.1989132), wk =   0.0039062
        k(  447) = (  -0.2436466  -0.2904158  -0.1282309), wk =   0.0039062
        k(  448) = (  -0.2469138  -0.2878630  -0.0575487), wk =   0.0039062
        k(  449) = (  -0.1252019  -0.0662857   0.0049686), wk =   0.0039062
        k(  450) = (  -0.1284691  -0.0637329   0.0756509), wk =   0.0039062
        k(  451) = (  -0.1317363  -0.0611800   0.1463332), wk =   0.0039062
        k(  452) = (  -0.1350035  -0.0586272   0.2170155), wk =   0.0039062
        k(  453) = (  -0.1121331  -0.0764971  -0.2777605), wk =   0.0039062
        k(  454) = (  -0.1154003  -0.0739442  -0.2070782), wk =   0.0039062
        k(  455) = (  -0.1186675  -0.0713914  -0.1363959), wk =   0.0039062
        k(  456) = (  -0.1219347  -0.0688385  -0.0657137), wk =   0.0039062
        k(  457) = (  -0.1254247   0.0864530   0.0017723), wk =   0.0039062
        k(  458) = (  -0.1286919   0.0890059   0.0724545), wk =   0.0039062
        k(  459) = (  -0.1319591   0.0915587   0.1431368), wk =   0.0039062
        k(  460) = (  -0.1352263   0.0941115   0.2138191), wk =   0.0039062
        k(  461) = (  -0.1123558   0.0762417  -0.2809569), wk =   0.0039062
        k(  462) = (  -0.1156230   0.0787945  -0.2102746), wk =   0.0039062
        k(  463) = (  -0.1188902   0.0813473  -0.1395923), wk =   0.0039062
        k(  464) = (  -0.1221575   0.0839002  -0.0689100), wk =   0.0039062
        k(  465) = (  -0.1256474   0.2391917  -0.0014241), wk =   0.0039062
        k(  466) = (  -0.1289146   0.2417446   0.0692582), wk =   0.0039062
        k(  467) = (  -0.1321818   0.2442974   0.1399404), wk =   0.0039062
        k(  468) = (  -0.1354490   0.2468502   0.2106227), wk =   0.0039062
        k(  469) = (  -0.1125786   0.2289804  -0.2841532), wk =   0.0039062
        k(  470) = (  -0.1158458   0.2315332  -0.2134710), wk =   0.0039062
        k(  471) = (  -0.1191130   0.2340860  -0.1427887), wk =   0.0039062
        k(  472) = (  -0.1223802   0.2366389  -0.0721064), wk =   0.0039062
        k(  473) = (  -0.1258702   0.3919304  -0.0046205), wk =   0.0039062
        k(  474) = (  -0.1291374   0.3944833   0.0660618), wk =   0.0039062
        k(  475) = (  -0.1324046   0.3970361   0.1367441), wk =   0.0039062
        k(  476) = (  -0.1356718   0.3995890   0.2074263), wk =   0.0039062
        k(  477) = (  -0.1128014   0.3817191  -0.2873496), wk =   0.0039062
        k(  478) = (  -0.1160686   0.3842719  -0.2166673), wk =   0.0039062
        k(  479) = (  -0.1193358   0.3868248  -0.1459850), wk =   0.0039062
        k(  480) = (  -0.1226030   0.3893776  -0.0753028), wk =   0.0039062
        k(  481) = (  -0.1243108  -0.6772406   0.0177541), wk =   0.0039062
        k(  482) = (  -0.1275780  -0.6746877   0.0884364), wk =   0.0039062
        k(  483) = (  -0.1308452  -0.6721349   0.1591187), wk =   0.0039062
        k(  484) = (  -0.1341124  -0.6695820   0.2298009), wk =   0.0039062
        k(  485) = (  -0.1112420  -0.6874519  -0.2649750), wk =   0.0039062
        k(  486) = (  -0.1145092  -0.6848991  -0.1942927), wk =   0.0039062
        k(  487) = (  -0.1177764  -0.6823462  -0.1236105), wk =   0.0039062
        k(  488) = (  -0.1210436  -0.6797934  -0.0529282), wk =   0.0039062
        k(  489) = (  -0.1245336  -0.5245019   0.0145577), wk =   0.0039062
        k(  490) = (  -0.1278008  -0.5219490   0.0852400), wk =   0.0039062
        k(  491) = (  -0.1310680  -0.5193962   0.1559223), wk =   0.0039062
        k(  492) = (  -0.1343352  -0.5168433   0.2266046), wk =   0.0039062
        k(  493) = (  -0.1114648  -0.5347132  -0.2681714), wk =   0.0039062
        k(  494) = (  -0.1147320  -0.5321604  -0.1974891), wk =   0.0039062
        k(  495) = (  -0.1179992  -0.5296075  -0.1268068), wk =   0.0039062
        k(  496) = (  -0.1212664  -0.5270547  -0.0561245), wk =   0.0039062
        k(  497) = (  -0.1247564  -0.3717631   0.0113614), wk =   0.0039062
        k(  498) = (  -0.1280236  -0.3692103   0.0820436), wk =   0.0039062
        k(  499) = (  -0.1312908  -0.3666575   0.1527259), wk =   0.0039062
        k(  500) = (  -0.1345580  -0.3641046   0.2234082), wk =   0.0039062
        k(  501) = (  -0.1116875  -0.3819745  -0.2713678), wk =   0.0039062
        k(  502) = (  -0.1149547  -0.3794217  -0.2006855), wk =   0.0039062
        k(  503) = (  -0.1182219  -0.3768688  -0.1300032), wk =   0.0039062
        k(  504) = (  -0.1214891  -0.3743160  -0.0593209), wk =   0.0039062
        k(  505) = (  -0.1249791  -0.2190244   0.0081650), wk =   0.0039062
        k(  506) = (  -0.1282463  -0.2164716   0.0788473), wk =   0.0039062
        k(  507) = (  -0.1315135  -0.2139187   0.1495296), wk =   0.0039062
        k(  508) = (  -0.1347807  -0.2113659   0.2202118), wk =   0.0039062
        k(  509) = (  -0.1119103  -0.2292358  -0.2745641), wk =   0.0039062
        k(  510) = (  -0.1151775  -0.2266829  -0.2038818), wk =   0.0039062
        k(  511) = (  -0.1184447  -0.2241301  -0.1331996), wk =   0.0039062
        k(  512) = (  -0.1217119  -0.2215773  -0.0625173), wk =   0.0039062

                       cryst. coord.
        k(    1) = (   0.0000000   0.0000000   0.0000000), wk =   0.0039062
        k(    2) = (   0.0000000   0.0000000   0.1250000), wk =   0.0039062
        k(    3) = (   0.0000000   0.0000000   0.2500000), wk =   0.0039062
        k(    4) = (   0.0000000   0.0000000   0.3750000), wk =   0.0039062
        k(    5) = (  -0.0000000  -0.0000000  -0.5000000), wk =   0.0039062
        k(    6) = (   0.0000000  -0.0000000  -0.3750000), wk =   0.0039062
        k(    7) = (  -0.0000000  -0.0000000  -0.2500000), wk =   0.0039062
        k(    8) = (  -0.0000000  -0.0000000  -0.1250000), wk =   0.0039062
        k(    9) = (  -0.0000000   0.1250000   0.0000000), wk =   0.0039062
        k(   10) = (   0.0000000   0.1250000   0.1250000), wk =   0.0039062
        k(   11) = (   0.0000000   0.1250000   0.2500000), wk =   0.0039062
        k(   12) = (   0.0000000   0.1250000   0.3750000), wk =   0.0039062
        k(   13) = (  -0.0000000   0.1250000  -0.5000000), wk =   0.0039062
        k(   14) = (   0.0000000   0.1250000  -0.3750000), wk =   0.0039062
        k(   15) = (  -0.0000000   0.1250000  -0.2500000), wk =   0.0039062
        k(   16) = (  -0.0000000   0.1250000  -0.1250000), wk =   0.0039062
        k(   17) = (  -0.0000000   0.2500000   0.0000000), wk =   0.0039062
        k(   18) = (   0.0000000   0.2500000   0.1250000), wk =   0.0039062
        k(   19) = (   0.0000000   0.2500000   0.2500000), wk =   0.0039062
        k(   20) = (   0.0000000   0.2500000   0.3750000), wk =   0.0039062
        k(   21) = (  -0.0000000   0.2500000  -0.5000000), wk =   0.0039062
        k(   22) = (   0.0000000   0.2500000  -0.3750000), wk =   0.0039062
        k(   23) = (  -0.0000000   0.2500000  -0.2500000), wk =   0.0039062
        k(   24) = (  -0.0000000   0.2500000  -0.1250000), wk =   0.0039062
        k(   25) = (  -0.0000000   0.3750000   0.0000000), wk =   0.0039062
        k(   26) = (   0.0000000   0.3750000   0.1250000), wk =   0.0039062
        k(   27) = (   0.0000000   0.3750000   0.2500000), wk =   0.0039062
        k(   28) = (   0.0000000   0.3750000   0.3750000), wk =   0.0039062
        k(   29) = (  -0.0000000   0.3750000  -0.5000000), wk =   0.0039062
        k(   30) = (   0.0000000   0.3750000  -0.3750000), wk =   0.0039062
        k(   31) = (  -0.0000000   0.3750000  -0.2500000), wk =   0.0039062
        k(   32) = (   0.0000000   0.3750000  -0.1250000), wk =   0.0039062
        k(   33) = (   0.0000000  -0.5000000   0.0000000), wk =   0.0039062
        k(   34) = (   0.0000000  -0.5000000   0.1250000), wk =   0.0039062
        k(   35) = (   0.0000000  -0.5000000   0.2500000), wk =   0.0039062
        k(   36) = (   0.0000000  -0.5000000   0.3750000), wk =   0.0039062
        k(   37) = (  -0.0000000  -0.5000000  -0.5000000), wk =   0.0039062
        k(   38) = (   0.0000000  -0.5000000  -0.3750000), wk =   0.0039062
        k(   39) = (  -0.0000000  -0.5000000  -0.2500000), wk =   0.0039062
        k(   40) = (   0.0000000  -0.5000000  -0.1250000), wk =   0.0039062
        k(   41) = (   0.0000000  -0.3750000   0.0000000), wk =   0.0039062
        k(   42) = (   0.0000000  -0.3750000   0.1250000), wk =   0.0039062
        k(   43) = (   0.0000000  -0.3750000   0.2500000), wk =   0.0039062
        k(   44) = (  -0.0000000  -0.3750000   0.3750000), wk =   0.0039062
        k(   45) = (  -0.0000000  -0.3750000  -0.5000000), wk =   0.0039062
        k(   46) = (  -0.0000000  -0.3750000  -0.3750000), wk =   0.0039062
        k(   47) = (  -0.0000000  -0.3750000  -0.2500000), wk =   0.0039062
        k(   48) = (  -0.0000000  -0.3750000  -0.1250000), wk =   0.0039062
        k(   49) = (   0.0000000  -0.2500000   0.0000000), wk =   0.0039062
        k(   50) = (   0.0000000  -0.2500000   0.1250000), wk =   0.0039062
        k(   51) = (   0.0000000  -0.2500000   0.2500000), wk =   0.0039062
        k(   52) = (   0.0000000  -0.2500000   0.3750000), wk =   0.0039062
        k(   53) = (   0.0000000  -0.2500000  -0.5000000), wk =   0.0039062
        k(   54) = (   0.0000000  -0.2500000  -0.3750000), wk =   0.0039062
        k(   55) = (  -0.0000000  -0.2500000  -0.2500000), wk =   0.0039062
        k(   56) = (  -0.0000000  -0.2500000  -0.1250000), wk =   0.0039062
        k(   57) = (   0.0000000  -0.1250000   0.0000000), wk =   0.0039062
        k(   58) = (   0.0000000  -0.1250000   0.1250000), wk =   0.0039062
        k(   59) = (   0.0000000  -0.1250000   0.2500000), wk =   0.0039062
        k(   60) = (   0.0000000  -0.1250000   0.3750000), wk =   0.0039062
        k(   61) = (  -0.0000000  -0.1250000  -0.5000000), wk =   0.0039062
        k(   62) = (   0.0000000  -0.1250000  -0.3750000), wk =   0.0039062
        k(   63) = (   0.0000000  -0.1250000  -0.2500000), wk =   0.0039062
        k(   64) = (  -0.0000000  -0.1250000  -0.1250000), wk =   0.0039062
        k(   65) = (   0.1250000   0.0000000   0.0000000), wk =   0.0039062
        k(   66) = (   0.1250000   0.0000000   0.1250000), wk =   0.0039062
        k(   67) = (   0.1250000   0.0000000   0.2500000), wk =   0.0039062
        k(   68) = (   0.1250000   0.0000000   0.3750000), wk =   0.0039062
        k(   69) = (   0.1250000   0.0000000  -0.5000000), wk =   0.0039062
        k(   70) = (   0.1250000   0.0000000  -0.3750000), wk =   0.0039062
        k(   71) = (   0.1250000   0.0000000  -0.2500000), wk =   0.0039062
        k(   72) = (   0.1250000   0.0000000  -0.1250000), wk =   0.0039062
        k(   73) = (   0.1250000   0.1250000  -0.0000000), wk =   0.0039062
        k(   74) = (   0.1250000   0.1250000   0.1250000), wk =   0.0039062
        k(   75) = (   0.1250000   0.1250000   0.2500000), wk =   0.0039062
        k(   76) = (   0.1250000   0.1250000   0.3750000), wk =   0.0039062
        k(   77) = (   0.1250000   0.1250000  -0.5000000), wk =   0.0039062
        k(   78) = (   0.1250000   0.1250000  -0.3750000), wk =   0.0039062
        k(   79) = (   0.1250000   0.1250000  -0.2500000), wk =   0.0039062
        k(   80) = (   0.1250000   0.1250000  -0.1250000), wk =   0.0039062
        k(   81) = (   0.1250000   0.2500000  -0.0000000), wk =   0.0039062
        k(   82) = (   0.1250000   0.2500000   0.1250000), wk =   0.0039062
        k(   83) = (   0.1250000   0.2500000   0.2500000), wk =   0.0039062
        k(   84) = (   0.1250000   0.2500000   0.3750000), wk =   0.0039062
        k(   85) = (   0.1250000   0.2500000  -0.5000000), wk =   0.0039062
        k(   86) = (   0.1250000   0.2500000  -0.3750000), wk =   0.0039062
        k(   87) = (   0.1250000   0.2500000  -0.2500000), wk =   0.0039062
        k(   88) = (   0.1250000   0.2500000  -0.1250000), wk =   0.0039062
        k(   89) = (   0.1250000   0.3750000   0.0000000), wk =   0.0039062
        k(   90) = (   0.1250000   0.3750000   0.1250000), wk =   0.0039062
        k(   91) = (   0.1250000   0.3750000   0.2500000), wk =   0.0039062
        k(   92) = (   0.1250000   0.3750000   0.3750000), wk =   0.0039062
        k(   93) = (   0.1250000   0.3750000  -0.5000000), wk =   0.0039062
        k(   94) = (   0.1250000   0.3750000  -0.3750000), wk =   0.0039062
        k(   95) = (   0.1250000   0.3750000  -0.2500000), wk =   0.0039062
        k(   96) = (   0.1250000   0.3750000  -0.1250000), wk =   0.0039062
        k(   97) = (   0.1250000  -0.5000000  -0.0000000), wk =   0.0039062
        k(   98) = (   0.1250000  -0.5000000   0.1250000), wk =   0.0039062
        k(   99) = (   0.1250000  -0.5000000   0.2500000), wk =   0.0039062
        k(  100) = (   0.1250000  -0.5000000   0.3750000), wk =   0.0039062
        k(  101) = (   0.1250000  -0.5000000  -0.5000000), wk =   0.0039062
        k(  102) = (   0.1250000  -0.5000000  -0.3750000), wk =   0.0039062
        k(  103) = (   0.1250000  -0.5000000  -0.2500000), wk =   0.0039062
        k(  104) = (   0.1250000  -0.5000000  -0.1250000), wk =   0.0039062
        k(  105) = (   0.1250000  -0.3750000   0.0000000), wk =   0.0039062
        k(  106) = (   0.1250000  -0.3750000   0.1250000), wk =   0.0039062
        k(  107) = (   0.1250000  -0.3750000   0.2500000), wk =   0.0039062
        k(  108) = (   0.1250000  -0.3750000   0.3750000), wk =   0.0039062
        k(  109) = (   0.1250000  -0.3750000  -0.5000000), wk =   0.0039062
        k(  110) = (   0.1250000  -0.3750000  -0.3750000), wk =   0.0039062
        k(  111) = (   0.1250000  -0.3750000  -0.2500000), wk =   0.0039062
        k(  112) = (   0.1250000  -0.3750000  -0.1250000), wk =   0.0039062
        k(  113) = (   0.1250000  -0.2500000  -0.0000000), wk =   0.0039062
        k(  114) = (   0.1250000  -0.2500000   0.1250000), wk =   0.0039062
        k(  115) = (   0.1250000  -0.2500000   0.2500000), wk =   0.0039062
        k(  116) = (   0.1250000  -0.2500000   0.3750000), wk =   0.0039062
        k(  117) = (   0.1250000  -0.2500000  -0.5000000), wk =   0.0039062
        k(  118) = (   0.1250000  -0.2500000  -0.3750000), wk =   0.0039062
        k(  119) = (   0.1250000  -0.2500000  -0.2500000), wk =   0.0039062
        k(  120) = (   0.1250000  -0.2500000  -0.1250000), wk =   0.0039062
        k(  121) = (   0.1250000  -0.1250000  -0.0000000), wk =   0.0039062
        k(  122) = (   0.1250000  -0.1250000   0.1250000), wk =   0.0039062
        k(  123) = (   0.1250000  -0.1250000   0.2500000), wk =   0.0039062
        k(  124) = (   0.1250000  -0.1250000   0.3750000), wk =   0.0039062
        k(  125) = (   0.1250000  -0.1250000  -0.5000000), wk =   0.0039062
        k(  126) = (   0.1250000  -0.1250000  -0.3750000), wk =   0.0039062
        k(  127) = (   0.1250000  -0.1250000  -0.2500000), wk =   0.0039062
        k(  128) = (   0.1250000  -0.1250000  -0.1250000), wk =   0.0039062
        k(  129) = (   0.2500000   0.0000000   0.0000000), wk =   0.0039062
        k(  130) = (   0.2500000   0.0000000   0.1250000), wk =   0.0039062
        k(  131) = (   0.2500000   0.0000000   0.2500000), wk =   0.0039062
        k(  132) = (   0.2500000   0.0000000   0.3750000), wk =   0.0039062
        k(  133) = (   0.2500000   0.0000000  -0.5000000), wk =   0.0039062
        k(  134) = (   0.2500000   0.0000000  -0.3750000), wk =   0.0039062
        k(  135) = (   0.2500000   0.0000000  -0.2500000), wk =   0.0039062
        k(  136) = (   0.2500000  -0.0000000  -0.1250000), wk =   0.0039062
        k(  137) = (   0.2500000   0.1250000   0.0000000), wk =   0.0039062
        k(  138) = (   0.2500000   0.1250000   0.1250000), wk =   0.0039062
        k(  139) = (   0.2500000   0.1250000   0.2500000), wk =   0.0039062
        k(  140) = (   0.2500000   0.1250000   0.3750000), wk =   0.0039062
        k(  141) = (   0.2500000   0.1250000  -0.5000000), wk =   0.0039062
        k(  142) = (   0.2500000   0.1250000  -0.3750000), wk =   0.0039062
        k(  143) = (   0.2500000   0.1250000  -0.2500000), wk =   0.0039062
        k(  144) = (   0.2500000   0.1250000  -0.1250000), wk =   0.0039062
        k(  145) = (   0.2500000   0.2500000  -0.0000000), wk =   0.0039062
        k(  146) = (   0.2500000   0.2500000   0.1250000), wk =   0.0039062
        k(  147) = (   0.2500000   0.2500000   0.2500000), wk =   0.0039062
        k(  148) = (   0.2500000   0.2500000   0.3750000), wk =   0.0039062
        k(  149) = (   0.2500000   0.2500000  -0.5000000), wk =   0.0039062
        k(  150) = (   0.2500000   0.2500000  -0.3750000), wk =   0.0039062
        k(  151) = (   0.2500000   0.2500000  -0.2500000), wk =   0.0039062
        k(  152) = (   0.2500000   0.2500000  -0.1250000), wk =   0.0039062
        k(  153) = (   0.2500000   0.3750000  -0.0000000), wk =   0.0039062
        k(  154) = (   0.2500000   0.3750000   0.1250000), wk =   0.0039062
        k(  155) = (   0.2500000   0.3750000   0.2500000), wk =   0.0039062
        k(  156) = (   0.2500000   0.3750000   0.3750000), wk =   0.0039062
        k(  157) = (   0.2500000   0.3750000  -0.5000000), wk =   0.0039062
        k(  158) = (   0.2500000   0.3750000  -0.3750000), wk =   0.0039062
        k(  159) = (   0.2500000   0.3750000  -0.2500000), wk =   0.0039062
        k(  160) = (   0.2500000   0.3750000  -0.1250000), wk =   0.0039062
        k(  161) = (   0.2500000  -0.5000000  -0.0000000), wk =   0.0039062
        k(  162) = (   0.2500000  -0.5000000   0.1250000), wk =   0.0039062
        k(  163) = (   0.2500000  -0.5000000   0.2500000), wk =   0.0039062
        k(  164) = (   0.2500000  -0.5000000   0.3750000), wk =   0.0039062
        k(  165) = (   0.2500000  -0.5000000  -0.5000000), wk =   0.0039062
        k(  166) = (   0.2500000  -0.5000000  -0.3750000), wk =   0.0039062
        k(  167) = (   0.2500000  -0.5000000  -0.2500000), wk =   0.0039062
        k(  168) = (   0.2500000  -0.5000000  -0.1250000), wk =   0.0039062
        k(  169) = (   0.2500000  -0.3750000  -0.0000000), wk =   0.0039062
        k(  170) = (   0.2500000  -0.3750000   0.1250000), wk =   0.0039062
        k(  171) = (   0.2500000  -0.3750000   0.2500000), wk =   0.0039062
        k(  172) = (   0.2500000  -0.3750000   0.3750000), wk =   0.0039062
        k(  173) = (   0.2500000  -0.3750000  -0.5000000), wk =   0.0039062
        k(  174) = (   0.2500000  -0.3750000  -0.3750000), wk =   0.0039062
        k(  175) = (   0.2500000  -0.3750000  -0.2500000), wk =   0.0039062
        k(  176) = (   0.2500000  -0.3750000  -0.1250000), wk =   0.0039062
        k(  177) = (   0.2500000  -0.2500000  -0.0000000), wk =   0.0039062
        k(  178) = (   0.2500000  -0.2500000   0.1250000), wk =   0.0039062
        k(  179) = (   0.2500000  -0.2500000   0.2500000), wk =   0.0039062
        k(  180) = (   0.2500000  -0.2500000   0.3750000), wk =   0.0039062
        k(  181) = (   0.2500000  -0.2500000  -0.5000000), wk =   0.0039062
        k(  182) = (   0.2500000  -0.2500000  -0.3750000), wk =   0.0039062
        k(  183) = (   0.2500000  -0.2500000  -0.2500000), wk =   0.0039062
        k(  184) = (   0.2500000  -0.2500000  -0.1250000), wk =   0.0039062
        k(  185) = (   0.2500000  -0.1250000  -0.0000000), wk =   0.0039062
        k(  186) = (   0.2500000  -0.1250000   0.1250000), wk =   0.0039062
        k(  187) = (   0.2500000  -0.1250000   0.2500000), wk =   0.0039062
        k(  188) = (   0.2500000  -0.1250000   0.3750000), wk =   0.0039062
        k(  189) = (   0.2500000  -0.1250000  -0.5000000), wk =   0.0039062
        k(  190) = (   0.2500000  -0.1250000  -0.3750000), wk =   0.0039062
        k(  191) = (   0.2500000  -0.1250000  -0.2500000), wk =   0.0039062
        k(  192) = (   0.2500000  -0.1250000  -0.1250000), wk =   0.0039062
        k(  193) = (   0.3750000   0.0000000  -0.0000000), wk =   0.0039062
        k(  194) = (   0.3750000   0.0000000   0.1250000), wk =   0.0039062
        k(  195) = (   0.3750000   0.0000000   0.2500000), wk =   0.0039062
        k(  196) = (   0.3750000   0.0000000   0.3750000), wk =   0.0039062
        k(  197) = (   0.3750000  -0.0000000  -0.5000000), wk =   0.0039062
        k(  198) = (   0.3750000  -0.0000000  -0.3750000), wk =   0.0039062
        k(  199) = (   0.3750000   0.0000000  -0.2500000), wk =   0.0039062
        k(  200) = (   0.3750000  -0.0000000  -0.1250000), wk =   0.0039062
        k(  201) = (   0.3750000   0.1250000   0.0000000), wk =   0.0039062
        k(  202) = (   0.3750000   0.1250000   0.1250000), wk =   0.0039062
        k(  203) = (   0.3750000   0.1250000   0.2500000), wk =   0.0039062
        k(  204) = (   0.3750000   0.1250000   0.3750000), wk =   0.0039062
        k(  205) = (   0.3750000   0.1250000  -0.5000000), wk =   0.0039062
        k(  206) = (   0.3750000   0.1250000  -0.3750000), wk =   0.0039062
        k(  207) = (   0.3750000   0.1250000  -0.2500000), wk =   0.0039062
        k(  208) = (   0.3750000   0.1250000  -0.1250000), wk =   0.0039062
        k(  209) = (   0.3750000   0.2500000  -0.0000000), wk =   0.0039062
        k(  210) = (   0.3750000   0.2500000   0.1250000), wk =   0.0039062
        k(  211) = (   0.3750000   0.2500000   0.2500000), wk =   0.0039062
        k(  212) = (   0.3750000   0.2500000   0.3750000), wk =   0.0039062
        k(  213) = (   0.3750000   0.2500000  -0.5000000), wk =   0.0039062
        k(  214) = (   0.3750000   0.2500000  -0.3750000), wk =   0.0039062
        k(  215) = (   0.3750000   0.2500000  -0.2500000), wk =   0.0039062
        k(  216) = (   0.3750000   0.2500000  -0.1250000), wk =   0.0039062
        k(  217) = (   0.3750000   0.3750000   0.0000000), wk =   0.0039062
        k(  218) = (   0.3750000   0.3750000   0.1250000), wk =   0.0039062
        k(  219) = (   0.3750000   0.3750000   0.2500000), wk =   0.0039062
        k(  220) = (   0.3750000   0.3750000   0.3750000), wk =   0.0039062
        k(  221) = (   0.3750000   0.3750000  -0.5000000), wk =   0.0039062
        k(  222) = (   0.3750000   0.3750000  -0.3750000), wk =   0.0039062
        k(  223) = (   0.3750000   0.3750000  -0.2500000), wk =   0.0039062
        k(  224) = (   0.3750000   0.3750000  -0.1250000), wk =   0.0039062
        k(  225) = (   0.3750000  -0.5000000  -0.0000000), wk =   0.0039062
        k(  226) = (   0.3750000  -0.5000000   0.1250000), wk =   0.0039062
        k(  227) = (   0.3750000  -0.5000000   0.2500000), wk =   0.0039062
        k(  228) = (   0.3750000  -0.5000000   0.3750000), wk =   0.0039062
        k(  229) = (   0.3750000  -0.5000000  -0.5000000), wk =   0.0039062
        k(  230) = (   0.3750000  -0.5000000  -0.3750000), wk =   0.0039062
        k(  231) = (   0.3750000  -0.5000000  -0.2500000), wk =   0.0039062
        k(  232) = (   0.3750000  -0.5000000  -0.1250000), wk =   0.0039062
        k(  233) = (   0.3750000  -0.3750000  -0.0000000), wk =   0.0039062
        k(  234) = (   0.3750000  -0.3750000   0.1250000), wk =   0.0039062
        k(  235) = (   0.3750000  -0.3750000   0.2500000), wk =   0.0039062
        k(  236) = (   0.3750000  -0.3750000   0.3750000), wk =   0.0039062
        k(  237) = (   0.3750000  -0.3750000  -0.5000000), wk =   0.0039062
        k(  238) = (   0.3750000  -0.3750000  -0.3750000), wk =   0.0039062
        k(  239) = (   0.3750000  -0.3750000  -0.2500000), wk =   0.0039062
        k(  240) = (   0.3750000  -0.3750000  -0.1250000), wk =   0.0039062
        k(  241) = (   0.3750000  -0.2500000   0.0000000), wk =   0.0039062
        k(  242) = (   0.3750000  -0.2500000   0.1250000), wk =   0.0039062
        k(  243) = (   0.3750000  -0.2500000   0.2500000), wk =   0.0039062
        k(  244) = (   0.3750000  -0.2500000   0.3750000), wk =   0.0039062
        k(  245) = (   0.3750000  -0.2500000  -0.5000000), wk =   0.0039062
        k(  246) = (   0.3750000  -0.2500000  -0.3750000), wk =   0.0039062
        k(  247) = (   0.3750000  -0.2500000  -0.2500000), wk =   0.0039062
        k(  248) = (   0.3750000  -0.2500000  -0.1250000), wk =   0.0039062
        k(  249) = (   0.3750000  -0.1250000  -0.0000000), wk =   0.0039062
        k(  250) = (   0.3750000  -0.1250000   0.1250000), wk =   0.0039062
        k(  251) = (   0.3750000  -0.1250000   0.2500000), wk =   0.0039062
        k(  252) = (   0.3750000  -0.1250000   0.3750000), wk =   0.0039062
        k(  253) = (   0.3750000  -0.1250000  -0.5000000), wk =   0.0039062
        k(  254) = (   0.3750000  -0.1250000  -0.3750000), wk =   0.0039062
        k(  255) = (   0.3750000  -0.1250000  -0.2500000), wk =   0.0039062
        k(  256) = (   0.3750000  -0.1250000  -0.1250000), wk =   0.0039062
        k(  257) = (  -0.5000000   0.0000000   0.0000000), wk =   0.0039062
        k(  258) = (  -0.5000000  -0.0000000   0.1250000), wk =   0.0039062
        k(  259) = (  -0.5000000   0.0000000   0.2500000), wk =   0.0039062
        k(  260) = (  -0.5000000  -0.0000000   0.3750000), wk =   0.0039062
        k(  261) = (  -0.5000000  -0.0000000  -0.5000000), wk =   0.0039062
        k(  262) = (  -0.5000000  -0.0000000  -0.3750000), wk =   0.0039062
        k(  263) = (  -0.5000000  -0.0000000  -0.2500000), wk =   0.0039062
        k(  264) = (  -0.5000000  -0.0000000  -0.1250000), wk =   0.0039062
        k(  265) = (  -0.5000000   0.1250000   0.0000000), wk =   0.0039062
        k(  266) = (  -0.5000000   0.1250000   0.1250000), wk =   0.0039062
        k(  267) = (  -0.5000000   0.1250000   0.2500000), wk =   0.0039062
        k(  268) = (  -0.5000000   0.1250000   0.3750000), wk =   0.0039062
        k(  269) = (  -0.5000000   0.1250000  -0.5000000), wk =   0.0039062
        k(  270) = (  -0.5000000   0.1250000  -0.3750000), wk =   0.0039062
        k(  271) = (  -0.5000000   0.1250000  -0.2500000), wk =   0.0039062
        k(  272) = (  -0.5000000   0.1250000  -0.1250000), wk =   0.0039062
        k(  273) = (  -0.5000000   0.2500000   0.0000000), wk =   0.0039062
        k(  274) = (  -0.5000000   0.2500000   0.1250000), wk =   0.0039062
        k(  275) = (  -0.5000000   0.2500000   0.2500000), wk =   0.0039062
        k(  276) = (  -0.5000000   0.2500000   0.3750000), wk =   0.0039062
        k(  277) = (  -0.5000000   0.2500000  -0.5000000), wk =   0.0039062
        k(  278) = (  -0.5000000   0.2500000  -0.3750000), wk =   0.0039062
        k(  279) = (  -0.5000000   0.2500000  -0.2500000), wk =   0.0039062
        k(  280) = (  -0.5000000   0.2500000  -0.1250000), wk =   0.0039062
        k(  281) = (  -0.5000000   0.3750000   0.0000000), wk =   0.0039062
        k(  282) = (  -0.5000000   0.3750000   0.1250000), wk =   0.0039062
        k(  283) = (  -0.5000000   0.3750000   0.2500000), wk =   0.0039062
        k(  284) = (  -0.5000000   0.3750000   0.3750000), wk =   0.0039062
        k(  285) = (  -0.5000000   0.3750000  -0.5000000), wk =   0.0039062
        k(  286) = (  -0.5000000   0.3750000  -0.3750000), wk =   0.0039062
        k(  287) = (  -0.5000000   0.3750000  -0.2500000), wk =   0.0039062
        k(  288) = (  -0.5000000   0.3750000  -0.1250000), wk =   0.0039062
        k(  289) = (  -0.5000000  -0.5000000   0.0000000), wk =   0.0039062
        k(  290) = (  -0.5000000  -0.5000000   0.1250000), wk =   0.0039062
        k(  291) = (  -0.5000000  -0.5000000   0.2500000), wk =   0.0039062
        k(  292) = (  -0.5000000  -0.5000000   0.3750000), wk =   0.0039062
        k(  293) = (  -0.5000000  -0.5000000  -0.5000000), wk =   0.0039062
        k(  294) = (  -0.5000000  -0.5000000  -0.3750000), wk =   0.0039062
        k(  295) = (  -0.5000000  -0.5000000  -0.2500000), wk =   0.0039062
        k(  296) = (  -0.5000000  -0.5000000  -0.1250000), wk =   0.0039062
        k(  297) = (  -0.5000000  -0.3750000   0.0000000), wk =   0.0039062
        k(  298) = (  -0.5000000  -0.3750000   0.1250000), wk =   0.0039062
        k(  299) = (  -0.5000000  -0.3750000   0.2500000), wk =   0.0039062
        k(  300) = (  -0.5000000  -0.3750000   0.3750000), wk =   0.0039062
        k(  301) = (  -0.5000000  -0.3750000  -0.5000000), wk =   0.0039062
        k(  302) = (  -0.5000000  -0.3750000  -0.3750000), wk =   0.0039062
        k(  303) = (  -0.5000000  -0.3750000  -0.2500000), wk =   0.0039062
        k(  304) = (  -0.5000000  -0.3750000  -0.1250000), wk =   0.0039062
        k(  305) = (  -0.5000000  -0.2500000   0.0000000), wk =   0.0039062
        k(  306) = (  -0.5000000  -0.2500000   0.1250000), wk =   0.0039062
        k(  307) = (  -0.5000000  -0.2500000   0.2500000), wk =   0.0039062
        k(  308) = (  -0.5000000  -0.2500000   0.3750000), wk =   0.0039062
        k(  309) = (  -0.5000000  -0.2500000  -0.5000000), wk =   0.0039062
        k(  310) = (  -0.5000000  -0.2500000  -0.3750000), wk =   0.0039062
        k(  311) = (  -0.5000000  -0.2500000  -0.2500000), wk =   0.0039062
        k(  312) = (  -0.5000000  -0.2500000  -0.1250000), wk =   0.0039062
        k(  313) = (  -0.5000000  -0.1250000   0.0000000), wk =   0.0039062
        k(  314) = (  -0.5000000  -0.1250000   0.1250000), wk =   0.0039062
        k(  315) = (  -0.5000000  -0.1250000   0.2500000), wk =   0.0039062
        k(  316) = (  -0.5000000  -0.1250000   0.3750000), wk =   0.0039062
        k(  317) = (  -0.5000000  -0.1250000  -0.5000000), wk =   0.0039062
        k(  318) = (  -0.5000000  -0.1250000  -0.3750000), wk =   0.0039062
        k(  319) = (  -0.5000000  -0.1250000  -0.2500000), wk =   0.0039062
        k(  320) = (  -0.5000000  -0.1250000  -0.1250000), wk =   0.0039062
        k(  321) = (  -0.3750000  -0.0000000   0.0000000), wk =   0.0039062
        k(  322) = (  -0.3750000   0.0000000   0.1250000), wk =   0.0039062
        k(  323) = (  -0.3750000  -0.0000000   0.2500000), wk =   0.0039062
        k(  324) = (  -0.3750000   0.0000000   0.3750000), wk =   0.0039062
        k(  325) = (  -0.3750000   0.0000000  -0.5000000), wk =   0.0039062
        k(  326) = (  -0.3750000  -0.0000000  -0.3750000), wk =   0.0039062
        k(  327) = (  -0.3750000  -0.0000000  -0.2500000), wk =   0.0039062
        k(  328) = (  -0.3750000  -0.0000000  -0.1250000), wk =   0.0039062
        k(  329) = (  -0.3750000   0.1250000   0.0000000), wk =   0.0039062
        k(  330) = (  -0.3750000   0.1250000   0.1250000), wk =   0.0039062
        k(  331) = (  -0.3750000   0.1250000   0.2500000), wk =   0.0039062
        k(  332) = (  -0.3750000   0.1250000   0.3750000), wk =   0.0039062
        k(  333) = (  -0.3750000   0.1250000  -0.5000000), wk =   0.0039062
        k(  334) = (  -0.3750000   0.1250000  -0.3750000), wk =   0.0039062
        k(  335) = (  -0.3750000   0.1250000  -0.2500000), wk =   0.0039062
        k(  336) = (  -0.3750000   0.1250000  -0.1250000), wk =   0.0039062
        k(  337) = (  -0.3750000   0.2500000   0.0000000), wk =   0.0039062
        k(  338) = (  -0.3750000   0.2500000   0.1250000), wk =   0.0039062
        k(  339) = (  -0.3750000   0.2500000   0.2500000), wk =   0.0039062
        k(  340) = (  -0.3750000   0.2500000   0.3750000), wk =   0.0039062
        k(  341) = (  -0.3750000   0.2500000  -0.5000000), wk =   0.0039062
        k(  342) = (  -0.3750000   0.2500000  -0.3750000), wk =   0.0039062
        k(  343) = (  -0.3750000   0.2500000  -0.2500000), wk =   0.0039062
        k(  344) = (  -0.3750000   0.2500000  -0.1250000), wk =   0.0039062
        k(  345) = (  -0.3750000   0.3750000   0.0000000), wk =   0.0039062
        k(  346) = (  -0.3750000   0.3750000   0.1250000), wk =   0.0039062
        k(  347) = (  -0.3750000   0.3750000   0.2500000), wk =   0.0039062
        k(  348) = (  -0.3750000   0.3750000   0.3750000), wk =   0.0039062
        k(  349) = (  -0.3750000   0.3750000  -0.5000000), wk =   0.0039062
        k(  350) = (  -0.3750000   0.3750000  -0.3750000), wk =   0.0039062
        k(  351) = (  -0.3750000   0.3750000  -0.2500000), wk =   0.0039062
        k(  352) = (  -0.3750000   0.3750000  -0.1250000), wk =   0.0039062
        k(  353) = (  -0.3750000  -0.5000000   0.0000000), wk =   0.0039062
        k(  354) = (  -0.3750000  -0.5000000   0.1250000), wk =   0.0039062
        k(  355) = (  -0.3750000  -0.5000000   0.2500000), wk =   0.0039062
        k(  356) = (  -0.3750000  -0.5000000   0.3750000), wk =   0.0039062
        k(  357) = (  -0.3750000  -0.5000000  -0.5000000), wk =   0.0039062
        k(  358) = (  -0.3750000  -0.5000000  -0.3750000), wk =   0.0039062
        k(  359) = (  -0.3750000  -0.5000000  -0.2500000), wk =   0.0039062
        k(  360) = (  -0.3750000  -0.5000000  -0.1250000), wk =   0.0039062
        k(  361) = (  -0.3750000  -0.3750000  -0.0000000), wk =   0.0039062
        k(  362) = (  -0.3750000  -0.3750000   0.1250000), wk =   0.0039062
        k(  363) = (  -0.3750000  -0.3750000   0.2500000), wk =   0.0039062
        k(  364) = (  -0.3750000  -0.3750000   0.3750000), wk =   0.0039062
        k(  365) = (  -0.3750000  -0.3750000  -0.5000000), wk =   0.0039062
        k(  366) = (  -0.3750000  -0.3750000  -0.3750000), wk =   0.0039062
        k(  367) = (  -0.3750000  -0.3750000  -0.2500000), wk =   0.0039062
        k(  368) = (  -0.3750000  -0.3750000  -0.1250000), wk =   0.0039062
        k(  369) = (  -0.3750000  -0.2500000   0.0000000), wk =   0.0039062
        k(  370) = (  -0.3750000  -0.2500000   0.1250000), wk =   0.0039062
        k(  371) = (  -0.3750000  -0.2500000   0.2500000), wk =   0.0039062
        k(  372) = (  -0.3750000  -0.2500000   0.3750000), wk =   0.0039062
        k(  373) = (  -0.3750000  -0.2500000  -0.5000000), wk =   0.0039062
        k(  374) = (  -0.3750000  -0.2500000  -0.3750000), wk =   0.0039062
        k(  375) = (  -0.3750000  -0.2500000  -0.2500000), wk =   0.0039062
        k(  376) = (  -0.3750000  -0.2500000  -0.1250000), wk =   0.0039062
        k(  377) = (  -0.3750000  -0.1250000   0.0000000), wk =   0.0039062
        k(  378) = (  -0.3750000  -0.1250000   0.1250000), wk =   0.0039062
        k(  379) = (  -0.3750000  -0.1250000   0.2500000), wk =   0.0039062
        k(  380) = (  -0.3750000  -0.1250000   0.3750000), wk =   0.0039062
        k(  381) = (  -0.3750000  -0.1250000  -0.5000000), wk =   0.0039062
        k(  382) = (  -0.3750000  -0.1250000  -0.3750000), wk =   0.0039062
        k(  383) = (  -0.3750000  -0.1250000  -0.2500000), wk =   0.0039062
        k(  384) = (  -0.3750000  -0.1250000  -0.1250000), wk =   0.0039062
        k(  385) = (  -0.2500000   0.0000000   0.0000000), wk =   0.0039062
        k(  386) = (  -0.2500000   0.0000000   0.1250000), wk =   0.0039062
        k(  387) = (  -0.2500000  -0.0000000   0.2500000), wk =   0.0039062
        k(  388) = (  -0.2500000   0.0000000   0.3750000), wk =   0.0039062
        k(  389) = (  -0.2500000  -0.0000000  -0.5000000), wk =   0.0039062
        k(  390) = (  -0.2500000  -0.0000000  -0.3750000), wk =   0.0039062
        k(  391) = (  -0.2500000  -0.0000000  -0.2500000), wk =   0.0039062
        k(  392) = (  -0.2500000  -0.0000000  -0.1250000), wk =   0.0039062
        k(  393) = (  -0.2500000   0.1250000   0.0000000), wk =   0.0039062
        k(  394) = (  -0.2500000   0.1250000   0.1250000), wk =   0.0039062
        k(  395) = (  -0.2500000   0.1250000   0.2500000), wk =   0.0039062
        k(  396) = (  -0.2500000   0.1250000   0.3750000), wk =   0.0039062
        k(  397) = (  -0.2500000   0.1250000  -0.5000000), wk =   0.0039062
        k(  398) = (  -0.2500000   0.1250000  -0.3750000), wk =   0.0039062
        k(  399) = (  -0.2500000   0.1250000  -0.2500000), wk =   0.0039062
        k(  400) = (  -0.2500000   0.1250000  -0.1250000), wk =   0.0039062
        k(  401) = (  -0.2500000   0.2500000   0.0000000), wk =   0.0039062
        k(  402) = (  -0.2500000   0.2500000   0.1250000), wk =   0.0039062
        k(  403) = (  -0.2500000   0.2500000   0.2500000), wk =   0.0039062
        k(  404) = (  -0.2500000   0.2500000   0.3750000), wk =   0.0039062
        k(  405) = (  -0.2500000   0.2500000  -0.5000000), wk =   0.0039062
        k(  406) = (  -0.2500000   0.2500000  -0.3750000), wk =   0.0039062
        k(  407) = (  -0.2500000   0.2500000  -0.2500000), wk =   0.0039062
        k(  408) = (  -0.2500000   0.2500000  -0.1250000), wk =   0.0039062
        k(  409) = (  -0.2500000   0.3750000   0.0000000), wk =   0.0039062
        k(  410) = (  -0.2500000   0.3750000   0.1250000), wk =   0.0039062
        k(  411) = (  -0.2500000   0.3750000   0.2500000), wk =   0.0039062
        k(  412) = (  -0.2500000   0.3750000   0.3750000), wk =   0.0039062
        k(  413) = (  -0.2500000   0.3750000  -0.5000000), wk =   0.0039062
        k(  414) = (  -0.2500000   0.3750000  -0.3750000), wk =   0.0039062
        k(  415) = (  -0.2500000   0.3750000  -0.2500000), wk =   0.0039062
        k(  416) = (  -0.2500000   0.3750000  -0.1250000), wk =   0.0039062
        k(  417) = (  -0.2500000  -0.5000000   0.0000000), wk =   0.0039062
        k(  418) = (  -0.2500000  -0.5000000   0.1250000), wk =   0.0039062
        k(  419) = (  -0.2500000  -0.5000000   0.2500000), wk =   0.0039062
        k(  420) = (  -0.2500000  -0.5000000   0.3750000), wk =   0.0039062
        k(  421) = (  -0.2500000  -0.5000000  -0.5000000), wk =   0.0039062
        k(  422) = (  -0.2500000  -0.5000000  -0.3750000), wk =   0.0039062
        k(  423) = (  -0.2500000  -0.5000000  -0.2500000), wk =   0.0039062
        k(  424) = (  -0.2500000  -0.5000000  -0.1250000), wk =   0.0039062
        k(  425) = (  -0.2500000  -0.3750000   0.0000000), wk =   0.0039062
        k(  426) = (  -0.2500000  -0.3750000   0.1250000), wk =   0.0039062
        k(  427) = (  -0.2500000  -0.3750000   0.2500000), wk =   0.0039062
        k(  428) = (  -0.2500000  -0.3750000   0.3750000), wk =   0.0039062
        k(  429) = (  -0.2500000  -0.3750000  -0.5000000), wk =   0.0039062
        k(  430) = (  -0.2500000  -0.3750000  -0.3750000), wk =   0.0039062
        k(  431) = (  -0.2500000  -0.3750000  -0.2500000), wk =   0.0039062
        k(  432) = (  -0.2500000  -0.3750000  -0.1250000), wk =   0.0039062
        k(  433) = (  -0.2500000  -0.2500000   0.0000000), wk =   0.0039062
        k(  434) = (  -0.2500000  -0.2500000   0.1250000), wk =   0.0039062
        k(  435) = (  -0.2500000  -0.2500000   0.2500000), wk =   0.0039062
        k(  436) = (  -0.2500000  -0.2500000   0.3750000), wk =   0.0039062
        k(  437) = (  -0.2500000  -0.2500000  -0.5000000), wk =   0.0039062
        k(  438) = (  -0.2500000  -0.2500000  -0.3750000), wk =   0.0039062
        k(  439) = (  -0.2500000  -0.2500000  -0.2500000), wk =   0.0039062
        k(  440) = (  -0.2500000  -0.2500000  -0.1250000), wk =   0.0039062
        k(  441) = (  -0.2500000  -0.1250000   0.0000000), wk =   0.0039062
        k(  442) = (  -0.2500000  -0.1250000   0.1250000), wk =   0.0039062
        k(  443) = (  -0.2500000  -0.1250000   0.2500000), wk =   0.0039062
        k(  444) = (  -0.2500000  -0.1250000   0.3750000), wk =   0.0039062
        k(  445) = (  -0.2500000  -0.1250000  -0.5000000), wk =   0.0039062
        k(  446) = (  -0.2500000  -0.1250000  -0.3750000), wk =   0.0039062
        k(  447) = (  -0.2500000  -0.1250000  -0.2500000), wk =   0.0039062
        k(  448) = (  -0.2500000  -0.1250000  -0.1250000), wk =   0.0039062
        k(  449) = (  -0.1250000   0.0000000   0.0000000), wk =   0.0039062
        k(  450) = (  -0.1250000  -0.0000000   0.1250000), wk =   0.0039062
        k(  451) = (  -0.1250000  -0.0000000   0.2500000), wk =   0.0039062
        k(  452) = (  -0.1250000   0.0000000   0.3750000), wk =   0.0039062
        k(  453) = (  -0.1250000  -0.0000000  -0.5000000), wk =   0.0039062
        k(  454) = (  -0.1250000   0.0000000  -0.3750000), wk =   0.0039062
        k(  455) = (  -0.1250000  -0.0000000  -0.2500000), wk =   0.0039062
        k(  456) = (  -0.1250000  -0.0000000  -0.1250000), wk =   0.0039062
        k(  457) = (  -0.1250000   0.1250000   0.0000000), wk =   0.0039062
        k(  458) = (  -0.1250000   0.1250000   0.1250000), wk =   0.0039062
        k(  459) = (  -0.1250000   0.1250000   0.2500000), wk =   0.0039062
        k(  460) = (  -0.1250000   0.1250000   0.3750000), wk =   0.0039062
        k(  461) = (  -0.1250000   0.1250000  -0.5000000), wk =   0.0039062
        k(  462) = (  -0.1250000   0.1250000  -0.3750000), wk =   0.0039062
        k(  463) = (  -0.1250000   0.1250000  -0.2500000), wk =   0.0039062
        k(  464) = (  -0.1250000   0.1250000  -0.1250000), wk =   0.0039062
        k(  465) = (  -0.1250000   0.2500000   0.0000000), wk =   0.0039062
        k(  466) = (  -0.1250000   0.2500000   0.1250000), wk =   0.0039062
        k(  467) = (  -0.1250000   0.2500000   0.2500000), wk =   0.0039062
        k(  468) = (  -0.1250000   0.2500000   0.3750000), wk =   0.0039062
        k(  469) = (  -0.1250000   0.2500000  -0.5000000), wk =   0.0039062
        k(  470) = (  -0.1250000   0.2500000  -0.3750000), wk =   0.0039062
        k(  471) = (  -0.1250000   0.2500000  -0.2500000), wk =   0.0039062
        k(  472) = (  -0.1250000   0.2500000  -0.1250000), wk =   0.0039062
        k(  473) = (  -0.1250000   0.3750000   0.0000000), wk =   0.0039062
        k(  474) = (  -0.1250000   0.3750000   0.1250000), wk =   0.0039062
        k(  475) = (  -0.1250000   0.3750000   0.2500000), wk =   0.0039062
        k(  476) = (  -0.1250000   0.3750000   0.3750000), wk =   0.0039062
        k(  477) = (  -0.1250000   0.3750000  -0.5000000), wk =   0.0039062
        k(  478) = (  -0.1250000   0.3750000  -0.3750000), wk =   0.0039062
        k(  479) = (  -0.1250000   0.3750000  -0.2500000), wk =   0.0039062
        k(  480) = (  -0.1250000   0.3750000  -0.1250000), wk =   0.0039062
        k(  481) = (  -0.1250000  -0.5000000   0.0000000), wk =   0.0039062
        k(  482) = (  -0.1250000  -0.5000000   0.1250000), wk =   0.0039062
        k(  483) = (  -0.1250000  -0.5000000   0.2500000), wk =   0.0039062
        k(  484) = (  -0.1250000  -0.5000000   0.3750000), wk =   0.0039062
        k(  485) = (  -0.1250000  -0.5000000  -0.5000000), wk =   0.0039062
        k(  486) = (  -0.1250000  -0.5000000  -0.3750000), wk =   0.0039062
        k(  487) = (  -0.1250000  -0.5000000  -0.2500000), wk =   0.0039062
[...]

    -2.1246  -0.2417   9.0592  14.3115  19.8534  20.1179  20.5157  20.6526

     occupation numbers 
     1.0000   1.0000   1.0000   0.0000   0.0000   0.0000   0.0000   0.0000

          k =-0.1189 0.0813-0.1396 (   751 PWs)   bands (ev):

    -2.6102   0.8906   7.0483  16.7664  19.5117  19.6767  21.0104  21.2806

     occupation numbers 
     1.0000   1.0000   1.0000   0.0000   0.0000   0.0000   0.0000   0.0000

          k =-0.1222 0.0839-0.0689 (   748 PWs)   bands (ev):

    -2.8898   2.1561   5.2755  18.7676  19.1770  19.7555  21.5210  22.1069

     occupation numbers 
     1.0000   1.0000   1.0000   0.0000   0.0000   0.0000   0.0000   0.0000

          k =-0.1256 0.2392-0.0014 (   756 PWs)   bands (ev):

    -1.9271   3.8573   5.4367  15.7838  16.2638  19.7501  20.8459  21.6613

     occupation numbers 
     1.0000   1.0000   1.0000   0.0000   0.0000   0.0000   0.0000   0.0000

          k =-0.1289 0.2417 0.0693 (   752 PWs)   bands (ev):

    -1.7862   2.7382   6.8059  15.7457  16.2433  19.2523  20.3749  20.8720

     occupation numbers 
     1.0000   1.0000   1.0000   0.0000   0.0000   0.0000   0.0000   0.0000

          k =-0.1322 0.2443 0.1399 (   754 PWs)   bands (ev):

    -1.4395   1.5114   8.6486  15.7946  16.1239  17.4920  19.3603  20.1824

     occupation numbers 
     1.0000   1.0000   1.0000   0.0000   0.0000   0.0000   0.0000   0.0000

          k =-0.1354 0.2469 0.2106 (   755 PWs)   bands (ev):

    -0.8885   0.4440  10.6858  14.2742  16.2357  17.2471  18.3968  19.2569

     occupation numbers 
     1.0000   1.0000   1.0000   0.0000   0.0000   0.0000   0.0000   0.0000

          k =-0.1126 0.2290-0.2842 (   757 PWs)   bands (ev):

    -0.4340  -0.1361  12.0702  12.8588  16.7067  17.5722  17.7497  18.4096

     occupation numbers 
     1.0000   1.0000   0.0002   0.0000   0.0000   0.0000   0.0000   0.0000

          k =-0.1158 0.2315-0.2135 (   755 PWs)   bands (ev):

    -1.1132   0.8119   9.9356  15.0466  16.8603  17.4074  17.7836  18.5008

     occupation numbers 
     1.0000   1.0000   1.0000   0.0000   0.0000   0.0000   0.0000   0.0000

          k =-0.1191 0.2341-0.1428 (   757 PWs)   bands (ev):

    -1.5899   1.9428   7.9573  16.2796  16.5260  17.8664  18.5510  19.3986

     occupation numbers 
     1.0000   1.0000   1.0000   0.0000   0.0000   0.0000   0.0000   0.0000

          k =-0.1224 0.2366-0.0721 (   758 PWs)   bands (ev):

    -1.8616   3.2003   6.2127  15.9767  16.4096  18.8912  20.1956  20.5953

     occupation numbers 
     1.0000   1.0000   1.0000   0.0000   0.0000   0.0000   0.0000   0.0000

          k =-0.1259 0.3919-0.0046 (   758 PWs)   bands (ev):

     0.0629   5.7132   7.3675  10.9146  13.8641  16.1606  17.4365  18.4442

     occupation numbers 
     1.0000   1.0000   1.0000   1.0000   0.0000   0.0000   0.0000   0.0000

          k =-0.1291 0.3945 0.0661 (   755 PWs)   bands (ev):

     0.2089   4.6188   8.6747  11.0301  13.7845  15.4648  18.2614  18.7094

     occupation numbers 
     1.0000   1.0000   1.0000   1.0000   0.0000   0.0000   0.0000   0.0000

          k =-0.1324 0.3970 0.1367 (   758 PWs)   bands (ev):

     0.5580   3.4200  10.2942  11.4426  13.8872  14.3811  17.9975  18.3654

     occupation numbers 
     1.0000   1.0000   1.0000   1.0000   0.0000   0.0000   0.0000   0.0000

          k =-0.1357 0.3996 0.2074 (   757 PWs)   bands (ev):

     1.1093   2.3743  11.4205  12.4311  13.6011  14.1776  16.4200  17.1410

     occupation numbers 
     1.0000   1.0000   1.0000   0.0000   0.0000   0.0000   0.0000   0.0000

          k =-0.1128 0.3817-0.2873 (   753 PWs)   bands (ev):

     1.5137   1.8585  12.1216  12.2120  13.8132  14.6096  15.3452  16.4051

     occupation numbers 
     1.0000   1.0000   0.0000   0.0000   0.0000   0.0000   0.0000   0.0000

          k =-0.1161 0.3843-0.2167 (   756 PWs)   bands (ev):

     0.8486   2.7990  11.2743  12.0080  13.2970  15.0431  15.4271  17.6192

     occupation numbers 
     1.0000   1.0000   1.0000   0.0024   0.0000   0.0000   0.0000   0.0000

          k =-0.1193 0.3868-0.1460 (   755 PWs)   bands (ev):

     0.3834   3.9152   9.6732  11.3472  14.1732  14.5895  16.1362  19.4394

     occupation numbers 
     1.0000   1.0000   1.0000   1.0000   0.0000   0.0000   0.0000   0.0000

          k =-0.1226 0.3894-0.0753 (   756 PWs)   bands (ev):

     0.1210   5.1407   8.0426  11.0193  14.1220  15.3139  16.9969  18.9087

     occupation numbers 
     1.0000   1.0000   1.0000   1.0000   0.0000   0.0000   0.0000   0.0000

          k =-0.1243-0.6772 0.0178 (   757 PWs)   bands (ev):

     2.9702   6.1020   8.6863  10.1532  11.9691  12.6555  13.4469  16.9961

     occupation numbers 
     1.0000   1.0000   1.0000   1.0000   0.0108   0.0000   0.0000   0.0000

          k =-0.1276-0.6747 0.0884 (   762 PWs)   bands (ev):

     3.1182   6.1324   7.6593  10.7337  11.7678  12.7351  14.4186  17.5598

     occupation numbers 
     1.0000   1.0000   1.0000   1.0000   0.9653   0.0000   0.0000   0.0000

          k =-0.1308-0.6721 0.1591 (   762 PWs)   bands (ev):

     3.4633   5.9325   6.9847   9.7861  12.3447  13.7930  15.9107  17.0647

     occupation numbers 
     1.0000   1.0000   1.0000   1.0000   0.0000   0.0000   0.0000   0.0000

          k =-0.1341-0.6696 0.2298 (   763 PWs)   bands (ev):

     4.0003   5.1383   7.2478   8.7770  12.7262  15.1485  16.2397  17.5944

     occupation numbers 
     1.0000   1.0000   1.0000   1.0000   0.0000   0.0000   0.0000   0.0000

          k =-0.1112-0.6875-0.2650 (   757 PWs)   bands (ev):

     4.3457   4.7156   7.8757   7.9420  13.1958  14.6379  16.6197  17.7773

     occupation numbers 
     1.0000   1.0000   1.0000   1.0000   0.0000   0.0000   0.0000   0.0000

          k =-0.1145-0.6849-0.1943 (   757 PWs)   bands (ev):

     3.7142   5.5565   7.3396   8.7245  13.6128  13.8911  14.9259  17.9857

     occupation numbers 
     1.0000   1.0000   1.0000   1.0000   0.0000   0.0000   0.0000   0.0000

          k =-0.1178-0.6823-0.1236 (   759 PWs)   bands (ev):

     3.2699   6.1843   7.3154   9.7242  12.5459  13.3518  14.8028  16.4038

     occupation numbers 
     1.0000   1.0000   1.0000   1.0000   0.0000   0.0000   0.0000   0.0000

          k =-0.1210-0.6798-0.0529 (   757 PWs)   bands (ev):

     3.0209   6.1677   8.2277  10.4626  11.4101  12.8978  14.3700  16.0929

     occupation numbers 
     1.0000   1.0000   1.0000   1.0000   1.0000   0.0000   0.0000   0.0000

          k =-0.1245-0.5245 0.0146 (   764 PWs)   bands (ev):

     2.5319   6.5784   8.5188   9.6411  11.6833  12.7686  14.1727  16.6627

     occupation numbers 
     1.0000   1.0000   1.0000   1.0000   0.9987   0.0000   0.0000   0.0000

          k =-0.1278-0.5219 0.0852 (   755 PWs)   bands (ev):

     2.6362   6.5437   7.7531  10.5109  11.3164  12.2473  15.4749  17.2441

     occupation numbers 
     1.0000   1.0000   1.0000   1.0000   1.0000   0.0000   0.0000   0.0000

          k =-0.1311-0.5194 0.1559 (   760 PWs)   bands (ev):

     2.9402   5.9129   7.5218   9.9226  12.0096  12.8520  16.2194  17.4743

     occupation numbers 
     1.0000   1.0000   1.0000   1.0000   0.0023   0.0000   0.0000   0.0000

          k =-0.1343-0.5168 0.2266 (   760 PWs)   bands (ev):

     3.4412   4.9551   7.9502   8.9931  12.3748  14.4443  15.5618  18.2944

     occupation numbers 
     1.0000   1.0000   1.0000   1.0000   0.0000   0.0000   0.0000   0.0000

          k =-0.1115-0.5347-0.2682 (   756 PWs)   bands (ev):

     4.0954   4.1362   8.2051   8.6390  12.8436  14.2503  16.7158  16.8002

     occupation numbers 
     1.0000   1.0000   1.0000   1.0000   0.0000   0.0000   0.0000   0.0000

          k =-0.1147-0.5322-0.1975 (   757 PWs)   bands (ev):

     3.4163   4.9958   7.6131   9.5050  13.3817  13.5240  14.8214  17.7314

     occupation numbers 
     1.0000   1.0000   1.0000   1.0000   0.0000   0.0000   0.0000   0.0000

          k =-0.1180-0.5296-0.1268 (   765 PWs)   bands (ev):

     2.9238   5.9504   7.2967  10.4450  12.6594  12.9779  14.4160  16.4029

     occupation numbers 
     1.0000   1.0000   1.0000   1.0000   0.0000   0.0000   0.0000   0.0000

          k =-0.1213-0.5271-0.0561 (   762 PWs)   bands (ev):

     2.6280   6.5137   7.7034  10.5709  11.7288  12.8367  14.3718  15.8271

     occupation numbers 
     1.0000   1.0000   1.0000   1.0000   0.9922   0.0000   0.0000   0.0000

          k =-0.1248-0.3718 0.0114 (   759 PWs)   bands (ev):

    -0.2573   5.5101   6.9842  11.5468  12.5057  16.4521  17.3033  18.5086

     occupation numbers 
     1.0000   1.0000   1.0000   1.0000   0.0000   0.0000   0.0000   0.0000

          k =-0.1280-0.3692 0.0820 (   765 PWs)   bands (ev):

    -0.1442   4.5262   8.1621  11.6938  12.4368  15.6785  17.6697  18.8143

     occupation numbers 
     1.0000   1.0000   1.0000   0.9980   0.0000   0.0000   0.0000   0.0000

          k =-0.1313-0.3667 0.1527 (   769 PWs)   bands (ev):

     0.1731   3.3015   9.9090  12.0243  12.5399  14.6607  16.8908  18.4212

     occupation numbers 
     1.0000   1.0000   1.0000   0.0013   0.0000   0.0000   0.0000   0.0000

          k =-0.1346-0.3641 0.2234 (   762 PWs)   bands (ev):

     0.6938   2.2230  11.7284  12.5101  12.7740  13.8711  15.9189  16.5115

     occupation numbers 
     1.0000   1.0000   0.9923   0.0000   0.0000   0.0000   0.0000   0.0000

          k =-0.1117-0.3820-0.2714 (   758 PWs)   bands (ev):

     1.3274   1.4151  12.4808  12.7811  13.2604  14.1265  14.6878  15.3892

     occupation numbers 
     1.0000   1.0000   0.0000   0.0000   0.0000   0.0000   0.0000   0.0000

          k =-0.1150-0.3794-0.2007 (   754 PWs)   bands (ev):

     0.6292   2.3290  11.4276  12.3108  13.5625  14.2068  14.6511  16.8421

     occupation numbers 
     1.0000   1.0000   1.0000   0.0000   0.0000   0.0000   0.0000   0.0000

          k =-0.1182-0.3769-0.1300 (   762 PWs)   bands (ev):

     0.1300   3.4265   9.6862  11.8325  13.1392  14.9959  15.4527  18.8138

     occupation numbers 
     1.0000   1.0000   1.0000   0.6910   0.0000   0.0000   0.0000   0.0000

          k =-0.1215-0.3743-0.0593 (   765 PWs)   bands (ev):

    -0.1660   4.6608   7.9822  11.5907  12.7469  15.9127  16.4936  18.9498

     occupation numbers 
     1.0000   1.0000   1.0000   1.0000   0.0000   0.0000   0.0000   0.0000

          k =-0.1250-0.2190 0.0082 (   760 PWs)   bands (ev):

    -2.1217   3.7237   5.2009  13.8982  16.8126  18.3001  20.8283  21.2372

     occupation numbers 
     1.0000   1.0000   1.0000   0.0000   0.0000   0.0000   0.0000   0.0000

          k =-0.1282-0.2165 0.0788 (   761 PWs)   bands (ev):

    -2.0007   2.6793   6.4635  13.8294  16.8976  18.7585  19.4527  20.4603

     occupation numbers 
     1.0000   1.0000   1.0000   0.0000   0.0000   0.0000   0.0000   0.0000

          k =-0.1315-0.2139 0.1495 (   765 PWs)   bands (ev):

    -1.6736   1.4381   8.2923  13.9252  16.5764  17.5721  18.4141  19.7002

     occupation numbers 
     1.0000   1.0000   1.0000   0.0000   0.0000   0.0000   0.0000   0.0000

          k =-0.1348-0.2114 0.2202 (   767 PWs)   bands (ev):

    -1.1416   0.3515  10.3266  13.9384  14.8105  16.8630  18.2985  18.9181

     occupation numbers 
     1.0000   1.0000   1.0000   0.0000   0.0000   0.0000   0.0000   0.0000

          k =-0.1119-0.2292-0.2746 (   755 PWs)   bands (ev):

    -0.5473  -0.4070  12.0907  12.5128  14.8544  16.0465  18.2347  18.8389

     occupation numbers 
     1.0000   1.0000   0.0001   0.0000   0.0000   0.0000   0.0000   0.0000

          k =-0.1152-0.2267-0.2039 (   756 PWs)   bands (ev):

    -1.2468   0.5240   9.9578  14.5644  15.4431  15.5714  17.7366  19.6168

     occupation numbers 
     1.0000   1.0000   1.0000   0.0000   0.0000   0.0000   0.0000   0.0000

          k =-0.1184-0.2241-0.1332 (   759 PWs)   bands (ev):

    -1.7439   1.6409   7.9594  14.5360  16.2455  16.8833  17.9230  20.5138

     occupation numbers 
     1.0000   1.0000   1.0000   0.0000   0.0000   0.0000   0.0000   0.0000

          k =-0.1217-0.2216-0.0625 (   762 PWs)   bands (ev):

    -2.0360   2.8979   6.1800  14.1409  16.7573  17.4104  19.9335  21.2786

     occupation numbers 
     1.0000   1.0000   1.0000   0.0000   0.0000   0.0000   0.0000   0.0000

     the Fermi energy is    11.8532 ev

!    total energy              =     -15.77339901 Ry
     estimated scf accuracy    <       0.01025469 Ry
     smearing contrib. (-TS)   =      -0.00009381 Ry
     internal energy E=F+TS    =     -15.77330520 Ry

     The total energy is F=E-TS. E is the sum of the following terms:
     one-electron contribution =       9.82326430 Ry
     hartree contribution      =       0.07637739 Ry
     xc contribution           =      -5.03040944 Ry
     ewald contribution        =     -20.64253746 Ry

     convergence has been achieved in   1 iterations

     Forces acting on atoms (cartesian axes, Ry/au):

     atom    1 type  1   force =     0.00137279    0.00020402    0.00003693
     atom    2 type  1   force =    -0.00137279   -0.00020402   -0.00003693
     The non-local contrib.  to forces
     atom    1 type  1   force =     0.00465266    0.00463085    0.00574835
     atom    2 type  1   force =    -0.00465607   -0.00462756   -0.00573561
     The ionic contribution  to forces
     atom    1 type  1   force =    -0.02374236   -0.00946729    0.00809412
     atom    2 type  1   force =     0.02374236    0.00946729   -0.00809412
     The local contribution  to forces
     atom    1 type  1   force =     0.02168313    0.00545165   -0.01673867
     atom    2 type  1   force =    -0.02167943   -0.00545562    0.01672909
     The core correction contribution to forces
     atom    1 type  1   force =     0.00000000    0.00000000    0.00000000
     atom    2 type  1   force =     0.00000000    0.00000000    0.00000000
     The Hubbard contrib.    to forces
     atom    1 type  1   force =     0.00000000    0.00000000    0.00000000
     atom    2 type  1   force =     0.00000000    0.00000000    0.00000000
     The SCF correction term to forces
     atom    1 type  1   force =    -0.00122052   -0.00041154    0.00293482
     atom    2 type  1   force =     0.00122048    0.00041152   -0.00293460

     Total force =     0.001963     Total SCF correction =     0.004532
     SCF correction compared to forces is large: reduce conv_thr to get better values


     Computing stress (Cartesian axis) and pressure

          total   stress  (Ry/bohr**3)                   (kbar)     P=       66.59
   0.00021101  -0.00042431  -0.00013087           31.04      -62.42      -19.25
  -0.00042431   0.00064265  -0.00000581          -62.42       94.54       -0.85
  -0.00013087  -0.00000581   0.00050434          -19.25       -0.85       74.19

     kinetic stress (kbar)   3612.34    -38.53    -17.07
                              -38.53   3637.70      2.46
                              -17.07      2.46   3721.56

     local   stress (kbar)   -910.76    303.42     43.17
                              303.42  -1352.15     50.09
                               43.17     50.09   -124.50

     nonloc. stress (kbar)   4130.30    -69.57    -16.31
                              -69.57   4232.31     -6.81
                              -16.31     -6.81   4039.61

     hartree stress (kbar)     34.42     -6.22      1.50
                               -6.22     43.11     -3.35
                                1.50     -3.35    -14.42

     exc-cor stress (kbar)  -1264.27      0.00      0.00
                                0.00  -1264.27      0.00
                                0.00      0.00  -1264.27

     corecor stress (kbar)      0.00      0.00      0.00
                                0.00      0.00      0.00
                                0.00      0.00      0.00

     ewald   stress (kbar)  -5570.99   -251.50    -30.53
                             -251.50  -5202.16    -43.24
                              -30.53    -43.24  -6283.80

     hubbard stress (kbar)      0.00      0.00      0.00
                                0.00      0.00      0.00
                                0.00      0.00      0.00

     DFT-D   stress (kbar)      0.00      0.00      0.00
                                0.00      0.00      0.00
                                0.00      0.00      0.00

     XDM     stress (kbar)      0.00      0.00      0.00
                                0.00      0.00      0.00
                                0.00      0.00      0.00

     dft-nl  stress (kbar)      0.00      0.00      0.00
                                0.00      0.00      0.00
                                0.00      0.00      0.00

     TS-vdW  stress (kbar)      0.00      0.00      0.00
                                0.00      0.00      0.00
                                0.00      0.00      0.00

     MDB     stress (kbar)      0.00      0.00      0.00
                                0.00      0.00      0.00
                                0.00      0.00      0.00

     3D-RISM stress (kbar)      0.00      0.00      0.00
                                0.00      0.00      0.00
                                0.00      0.00      0.00


     Writing all to output data dir ../tmp/Si/Si.save/ :
     XML data file, charge density, pseudopotentials, collected wavefunctions

     init_run     :      1.79s CPU      1.86s WALL (       1 calls)
     electrons    :      9.72s CPU      9.95s WALL (       1 calls)
     forces       :      0.13s CPU      0.13s WALL (       1 calls)
     stress       :      1.62s CPU      1.62s WALL (       1 calls)

     Called by init_run:
     wfcinit      :      1.46s CPU      1.53s WALL (       1 calls)
     wfcinit:atom :      0.05s CPU      0.05s WALL (     512 calls)
     wfcinit:wfcr :      1.16s CPU      1.22s WALL (     512 calls)
     potinit      :      0.01s CPU      0.01s WALL (       1 calls)
     hinit0       :      0.27s CPU      0.27s WALL (       1 calls)

     Called by electrons:
     c_bands      :      8.72s CPU      8.93s WALL (       2 calls)
     sum_band     :      0.99s CPU      1.01s WALL (       2 calls)
     v_of_rho     :      0.00s CPU      0.00s WALL (       2 calls)
     v_h          :      0.00s CPU      0.00s WALL (       2 calls)
     v_xc         :      0.00s CPU      0.00s WALL (       2 calls)
     mix_rho      :      0.00s CPU      0.00s WALL (       2 calls)

     Called by c_bands:
     init_us_2    :      0.40s CPU      0.41s WALL (    3584 calls)
     cegterg      :      8.51s CPU      8.70s WALL (    1024 calls)

     Called by sum_band:
     sum_band:wei :      0.00s CPU      0.00s WALL (       2 calls)
     sum_band:loo :      0.99s CPU      1.00s WALL (       2 calls)
     sum_band:buf :      0.01s CPU      0.02s WALL (    1024 calls)
     sum_band:ini :      0.11s CPU      0.11s WALL (    1024 calls)

     Called by *egterg:
     cdiaghg      :      0.44s CPU      0.45s WALL (    4692 calls)
     cegterg:over :      0.22s CPU      0.22s WALL (    4180 calls)
     cegterg:upda :      0.19s CPU      0.19s WALL (    4180 calls)
     cegterg:last :      0.22s CPU      0.23s WALL (    3030 calls)
     h_psi        :      8.36s CPU      8.58s WALL (    5716 calls)
     g_psi        :      0.08s CPU      0.08s WALL (    4180 calls)

     Called by h_psi:
     h_psi:calbec :      0.13s CPU      0.13s WALL (    5716 calls)
     vloc_psi     :      8.03s CPU      8.24s WALL (    5716 calls)
     add_vuspsi   :      0.13s CPU      0.13s WALL (    5716 calls)

     General routines
     calbec       :      0.18s CPU      0.18s WALL (    8276 calls)
     fft          :      0.25s CPU      0.25s WALL (      11 calls)
     ffts         :      0.00s CPU      0.00s WALL (       2 calls)
     fftw         :      7.42s CPU      7.61s WALL (   72542 calls)


     PWSCF        :     13.33s CPU     13.72s WALL


   This run was terminated on:  19: 1:30   6May2024            

=------------------------------------------------------------------------------=
   JOB DONE.
=------------------------------------------------------------------------------=
