
     Program PWSCF v.7.3.1 starts on  6May2024 at 19: 1:38 

     This program is part of the open-source Quantum ESPRESSO suite
     for quantum simulation of materials; please cite
         "P. Giannozzi et al., J. Phys.:Condens. Matter 21 395502 (2009);
         "P. Giannozzi et al., J. Phys.:Condens. Matter 29 465901 (2017);
         "P. Giannozzi et al., J. Chem. Phys. 152 154105 (2020);
          URL http://www.quantum-espresso.org", 
     in publications or presentations arising from this work. More details at
     http://www.quantum-espresso.org/quote

     Serial version
     1915 MiB available memory on the printing compute node when the environment starts

     Reading input from Si8.pw.in

     Current dimensions of program PWSCF are:
     Max number of different atomic species (ntypx) = 10
     Max number of k-points (npk) =  40000
     Max angular momentum in pseudopotentials (lmaxx) =  4


     G-vector sticks info
     --------------------
     sticks:   dense  smooth     PW     G-vecs:    dense   smooth      PW
     Sum         305     305    111                 7229     7229    1541

     Using Slab Decomposition



     bravais-lattice index     =            0
     lattice parameter (alat)  =       5.1192  a.u.
     unit-cell volume          =     211.5751 (a.u.)^3
     number of atoms/cell      =            2
     number of atomic types    =            1
     number of electrons       =         8.00
     number of Kohn-Sham states=            8
     kinetic-energy cutoff     =      40.0000  Ry
     charge density cutoff     =     160.0000  Ry
     scf convergence threshold =      2.0E-02
     mixing beta               =       0.1000
     number of iterations used =            8  plain     mixing
     Exchange-correlation=  SLA  PZ   NOGX NOGC
                           (   1   1   0   0   0   0   0)

     celldm(1)=   5.119158  celldm(2)=   0.000000  celldm(3)=   0.000000
     celldm(4)=   0.000000  celldm(5)=   0.000000  celldm(6)=   0.000000

     crystal axes: (cart. coord. in units of alat)
               a(1) = (   0.999340   0.026188   0.025194 )  
               a(2) = (  -0.500232   0.897597   0.004320 )  
               a(3) = (   0.023505  -0.025728   1.733021 )  

     reciprocal axes: (cart. coord. in units 2 pi/alat)
               b(1) = (  0.986387  0.549739 -0.005217 )  
               b(2) = ( -0.029187  1.097740  0.016692 )  
               b(3) = ( -0.014267 -0.010728  0.577061 )  


     PseudoPot. # 1 for Si read from file:
     ../pseudo/Si.pz-vbc.UPF
     MD5 check sum: 6dfa03ddd5817404712e03e4d12deb78
     Pseudo is Norm-conserving, Zval =  4.0
     Generated by new atomic code, or converted to UPF format
     Using radial grid of  431 points,  2 beta functions with: 
                l(1) =   0
                l(2) =   1

     atomic species   valence    mass     pseudopotential
     Si                4.00    28.08600     Si( 1.00)

     No symmetry found


                                    s                        frac. trans.

      isym =  1     identity                                     

 cryst.   s( 1) = (     1          0          0      )
                  (     0          1          0      )
                  (     0          0          1      )

 cart.    s( 1) = (  1.0000000  0.0000000  0.0000000 )
                  (  0.0000000  1.0000000 -0.0000000 )
                  (  0.0000000  0.0000000  1.0000000 )


   Cartesian axes

     site n.     atom                  positions (alat units)
         1        Si     tau(   1) = (   0.0055017   0.6006951   0.4445329  )
         2        Si     tau(   2) = (   0.5171114   0.2973615   1.3180014  )

   Crystallographic axes

     site n.     atom                  positions (cryst. coord.)
         1        Si     tau(   1) = (  0.3333333  0.6666667  0.2500000  )
         2        Si     tau(   2) = (  0.6666667  0.3333333  0.7500000  )

     number of k points=   512  Fermi-Dirac smearing, width (Ry)=  0.0019
                       cart. coord. in units 2pi/alat
        k(    1) = (   0.0000000   0.0000000   0.0000000), wk =   0.0039062
        k(    2) = (  -0.0017834  -0.0013410   0.0721327), wk =   0.0039062
        k(    3) = (  -0.0035667  -0.0026820   0.1442653), wk =   0.0039062
        k(    4) = (  -0.0053501  -0.0040230   0.2163980), wk =   0.0039062
        k(    5) = (   0.0071335   0.0053640  -0.2885307), wk =   0.0039062
        k(    6) = (   0.0053501   0.0040230  -0.2163980), wk =   0.0039062
        k(    7) = (   0.0035667   0.0026820  -0.1442653), wk =   0.0039062
        k(    8) = (   0.0017834   0.0013410  -0.0721327), wk =   0.0039062
        k(    9) = (  -0.0036484   0.1372175   0.0020866), wk =   0.0039062
        k(   10) = (  -0.0054317   0.1358765   0.0742192), wk =   0.0039062
        k(   11) = (  -0.0072151   0.1345355   0.1463519), wk =   0.0039062
        k(   12) = (  -0.0089985   0.1331945   0.2184846), wk =   0.0039062
        k(   13) = (   0.0034851   0.1425815  -0.2864441), wk =   0.0039062
        k(   14) = (   0.0017017   0.1412405  -0.2143115), wk =   0.0039062
        k(   15) = (  -0.0000816   0.1398995  -0.1421788), wk =   0.0039062
        k(   16) = (  -0.0018650   0.1385585  -0.0700461), wk =   0.0039062
        k(   17) = (  -0.0072967   0.2744349   0.0041731), wk =   0.0039062
        k(   18) = (  -0.0090801   0.2730939   0.0763058), wk =   0.0039062
        k(   19) = (  -0.0108635   0.2717529   0.1484384), wk =   0.0039062
        k(   20) = (  -0.0126468   0.2704120   0.2205711), wk =   0.0039062
        k(   21) = (  -0.0001633   0.2797989  -0.2843576), wk =   0.0039062
        k(   22) = (  -0.0019466   0.2784579  -0.2122249), wk =   0.0039062
        k(   23) = (  -0.0037300   0.2771169  -0.1400922), wk =   0.0039062
        k(   24) = (  -0.0055134   0.2757759  -0.0679596), wk =   0.0039062
        k(   25) = (  -0.0109451   0.4116524   0.0062597), wk =   0.0039062
        k(   26) = (  -0.0127285   0.4103114   0.0783923), wk =   0.0039062
        k(   27) = (  -0.0145118   0.4089704   0.1505250), wk =   0.0039062
        k(   28) = (  -0.0162952   0.4076294   0.2226577), wk =   0.0039062
        k(   29) = (  -0.0038116   0.4170164  -0.2822710), wk =   0.0039062
        k(   30) = (  -0.0055950   0.4156754  -0.2101384), wk =   0.0039062
        k(   31) = (  -0.0073784   0.4143344  -0.1380057), wk =   0.0039062
        k(   32) = (  -0.0091617   0.4129934  -0.0658730), wk =   0.0039062
        k(   33) = (   0.0145935  -0.5488699  -0.0083462), wk =   0.0039062
        k(   34) = (   0.0128101  -0.5502109   0.0637865), wk =   0.0039062
        k(   35) = (   0.0110267  -0.5515519   0.1359191), wk =   0.0039062
        k(   36) = (   0.0092434  -0.5528929   0.2080518), wk =   0.0039062
        k(   37) = (   0.0217269  -0.5435059  -0.2968769), wk =   0.0039062
        k(   38) = (   0.0199436  -0.5448469  -0.2247442), wk =   0.0039062
        k(   39) = (   0.0181602  -0.5461879  -0.1526116), wk =   0.0039062
        k(   40) = (   0.0163768  -0.5475289  -0.0804789), wk =   0.0039062
        k(   41) = (   0.0109451  -0.4116524  -0.0062597), wk =   0.0039062
        k(   42) = (   0.0091617  -0.4129934   0.0658730), wk =   0.0039062
        k(   43) = (   0.0073784  -0.4143344   0.1380057), wk =   0.0039062
        k(   44) = (   0.0055950  -0.4156754   0.2101384), wk =   0.0039062
        k(   45) = (   0.0180786  -0.4062884  -0.2947903), wk =   0.0039062
        k(   46) = (   0.0162952  -0.4076294  -0.2226577), wk =   0.0039062
        k(   47) = (   0.0145118  -0.4089704  -0.1505250), wk =   0.0039062
        k(   48) = (   0.0127285  -0.4103114  -0.0783923), wk =   0.0039062
        k(   49) = (   0.0072967  -0.2744349  -0.0041731), wk =   0.0039062
        k(   50) = (   0.0055134  -0.2757759   0.0679596), wk =   0.0039062
        k(   51) = (   0.0037300  -0.2771169   0.1400922), wk =   0.0039062
        k(   52) = (   0.0019466  -0.2784579   0.2122249), wk =   0.0039062
        k(   53) = (   0.0144302  -0.2690710  -0.2927038), wk =   0.0039062
        k(   54) = (   0.0126468  -0.2704120  -0.2205711), wk =   0.0039062
        k(   55) = (   0.0108635  -0.2717529  -0.1484384), wk =   0.0039062
        k(   56) = (   0.0090801  -0.2730939  -0.0763058), wk =   0.0039062
        k(   57) = (   0.0036484  -0.1372175  -0.0020866), wk =   0.0039062
        k(   58) = (   0.0018650  -0.1385585   0.0700461), wk =   0.0039062
        k(   59) = (   0.0000816  -0.1398995   0.1421788), wk =   0.0039062
        k(   60) = (  -0.0017017  -0.1412405   0.2143115), wk =   0.0039062
        k(   61) = (   0.0107818  -0.1318535  -0.2906172), wk =   0.0039062
        k(   62) = (   0.0089985  -0.1331945  -0.2184846), wk =   0.0039062
        k(   63) = (   0.0072151  -0.1345355  -0.1463519), wk =   0.0039062
        k(   64) = (   0.0054317  -0.1358765  -0.0742192), wk =   0.0039062
        k(   65) = (   0.1232983   0.0687174  -0.0006522), wk =   0.0039062
        k(   66) = (   0.1215150   0.0673764   0.0714805), wk =   0.0039062
        k(   67) = (   0.1197316   0.0660354   0.1436132), wk =   0.0039062
        k(   68) = (   0.1179482   0.0646944   0.2157459), wk =   0.0039062
        k(   69) = (   0.1304318   0.0740814  -0.2891828), wk =   0.0039062
        k(   70) = (   0.1286484   0.0727404  -0.2170502), wk =   0.0039062
        k(   71) = (   0.1268651   0.0713994  -0.1449175), wk =   0.0039062
        k(   72) = (   0.1250817   0.0700584  -0.0727848), wk =   0.0039062
        k(   73) = (   0.1196500   0.2059349   0.0014344), wk =   0.0039062
        k(   74) = (   0.1178666   0.2045939   0.0735671), wk =   0.0039062
        k(   75) = (   0.1160832   0.2032529   0.1456997), wk =   0.0039062
        k(   76) = (   0.1142998   0.2019119   0.2178324), wk =   0.0039062
        k(   77) = (   0.1267834   0.2112989  -0.2870963), wk =   0.0039062
        k(   78) = (   0.1250001   0.2099579  -0.2149636), wk =   0.0039062
        k(   79) = (   0.1232167   0.2086169  -0.1428309), wk =   0.0039062
        k(   80) = (   0.1214333   0.2072759  -0.0706983), wk =   0.0039062
        k(   81) = (   0.1160016   0.3431524   0.0035209), wk =   0.0039062
        k(   82) = (   0.1142182   0.3418114   0.0756536), wk =   0.0039062
        k(   83) = (   0.1124349   0.3404704   0.1477863), wk =   0.0039062
        k(   84) = (   0.1106515   0.3391294   0.2199190), wk =   0.0039062
        k(   85) = (   0.1231351   0.3485164  -0.2850097), wk =   0.0039062
        k(   86) = (   0.1213517   0.3471754  -0.2128771), wk =   0.0039062
        k(   87) = (   0.1195683   0.3458344  -0.1407444), wk =   0.0039062
        k(   88) = (   0.1177850   0.3444934  -0.0686117), wk =   0.0039062
        k(   89) = (   0.1123532   0.4803698   0.0056075), wk =   0.0039062
        k(   90) = (   0.1105699   0.4790288   0.0777402), wk =   0.0039062
        k(   91) = (   0.1087865   0.4776878   0.1498728), wk =   0.0039062
        k(   92) = (   0.1070031   0.4763468   0.2220055), wk =   0.0039062
        k(   93) = (   0.1194867   0.4857338  -0.2829232), wk =   0.0039062
        k(   94) = (   0.1177033   0.4843928  -0.2107905), wk =   0.0039062
        k(   95) = (   0.1159200   0.4830518  -0.1386578), wk =   0.0039062
        k(   96) = (   0.1141366   0.4817108  -0.0665252), wk =   0.0039062
        k(   97) = (   0.1378918  -0.4801525  -0.0089984), wk =   0.0039062
        k(   98) = (   0.1361084  -0.4814935   0.0631343), wk =   0.0039062
        k(   99) = (   0.1343251  -0.4828345   0.1352670), wk =   0.0039062
        k(  100) = (   0.1325417  -0.4841755   0.2073996), wk =   0.0039062
        k(  101) = (   0.1450253  -0.4747885  -0.2975291), wk =   0.0039062
        k(  102) = (   0.1432419  -0.4761295  -0.2253964), wk =   0.0039062
        k(  103) = (   0.1414585  -0.4774705  -0.1532637), wk =   0.0039062
        k(  104) = (   0.1396752  -0.4788115  -0.0811310), wk =   0.0039062
        k(  105) = (   0.1342434  -0.3429350  -0.0069118), wk =   0.0039062
        k(  106) = (   0.1324601  -0.3442760   0.0652208), wk =   0.0039062
        k(  107) = (   0.1306767  -0.3456170   0.1373535), wk =   0.0039062
        k(  108) = (   0.1288933  -0.3469580   0.2094862), wk =   0.0039062
        k(  109) = (   0.1413769  -0.3375710  -0.2954425), wk =   0.0039062
        k(  110) = (   0.1395935  -0.3389120  -0.2233098), wk =   0.0039062
        k(  111) = (   0.1378102  -0.3402530  -0.1511772), wk =   0.0039062
        k(  112) = (   0.1360268  -0.3415940  -0.0790445), wk =   0.0039062
        k(  113) = (   0.1305951  -0.2057175  -0.0048253), wk =   0.0039062
        k(  114) = (   0.1288117  -0.2070585   0.0673074), wk =   0.0039062
        k(  115) = (   0.1270283  -0.2083995   0.1394401), wk =   0.0039062
        k(  116) = (   0.1252449  -0.2097405   0.2115727), wk =   0.0039062
        k(  117) = (   0.1377285  -0.2003535  -0.2933560), wk =   0.0039062
        k(  118) = (   0.1359452  -0.2016945  -0.2212233), wk =   0.0039062
        k(  119) = (   0.1341618  -0.2030355  -0.1490906), wk =   0.0039062
        k(  120) = (   0.1323784  -0.2043765  -0.0769579), wk =   0.0039062
        k(  121) = (   0.1269467  -0.0685001  -0.0027387), wk =   0.0039062
        k(  122) = (   0.1251633  -0.0698410   0.0693940), wk =   0.0039062
        k(  123) = (   0.1233800  -0.0711820   0.1415266), wk =   0.0039062
        k(  124) = (   0.1215966  -0.0725230   0.2136593), wk =   0.0039062
        k(  125) = (   0.1340802  -0.0631361  -0.2912694), wk =   0.0039062
        k(  126) = (   0.1322968  -0.0644771  -0.2191367), wk =   0.0039062
        k(  127) = (   0.1305134  -0.0658181  -0.1470041), wk =   0.0039062
        k(  128) = (   0.1287301  -0.0671591  -0.0748714), wk =   0.0039062
        k(  129) = (   0.2465967   0.1374348  -0.0013043), wk =   0.0039062
        k(  130) = (   0.2448133   0.1360938   0.0708283), wk =   0.0039062
        k(  131) = (   0.2430299   0.1347528   0.1429610), wk =   0.0039062
        k(  132) = (   0.2412465   0.1334118   0.2150937), wk =   0.0039062
        k(  133) = (   0.2537301   0.1427988  -0.2898350), wk =   0.0039062
        k(  134) = (   0.2519468   0.1414578  -0.2177023), wk =   0.0039062
        k(  135) = (   0.2501634   0.1401168  -0.1455697), wk =   0.0039062
        k(  136) = (   0.2483800   0.1387758  -0.0734370), wk =   0.0039062
        k(  137) = (   0.2429483   0.2746523   0.0007822), wk =   0.0039062
        k(  138) = (   0.2411649   0.2733113   0.0729149), wk =   0.0039062
        k(  139) = (   0.2393815   0.2719703   0.1450476), wk =   0.0039062
        k(  140) = (   0.2375982   0.2706293   0.2171802), wk =   0.0039062
        k(  141) = (   0.2500818   0.2800163  -0.2877485), wk =   0.0039062
        k(  142) = (   0.2482984   0.2786753  -0.2156158), wk =   0.0039062
        k(  143) = (   0.2465150   0.2773343  -0.1434831), wk =   0.0039062
        k(  144) = (   0.2447317   0.2759933  -0.0713504), wk =   0.0039062
        k(  145) = (   0.2392999   0.4118698   0.0028688), wk =   0.0039062
        k(  146) = (   0.2375165   0.4105288   0.0750015), wk =   0.0039062
        k(  147) = (   0.2357332   0.4091878   0.1471341), wk =   0.0039062
        k(  148) = (   0.2339498   0.4078468   0.2192668), wk =   0.0039062
        k(  149) = (   0.2464334   0.4172338  -0.2856619), wk =   0.0039062
        k(  150) = (   0.2446500   0.4158928  -0.2135292), wk =   0.0039062
        k(  151) = (   0.2428667   0.4145518  -0.1413966), wk =   0.0039062
        k(  152) = (   0.2410833   0.4132108  -0.0692639), wk =   0.0039062
        k(  153) = (   0.2356516   0.5490873   0.0049553), wk =   0.0039062
        k(  154) = (   0.2338682   0.5477463   0.0770880), wk =   0.0039062
        k(  155) = (   0.2320848   0.5464053   0.1492207), wk =   0.0039062
        k(  156) = (   0.2303014   0.5450643   0.2213534), wk =   0.0039062
        k(  157) = (   0.2427850   0.5544513  -0.2835753), wk =   0.0039062
        k(  158) = (   0.2410017   0.5531103  -0.2114427), wk =   0.0039062
        k(  159) = (   0.2392183   0.5517693  -0.1393100), wk =   0.0039062
        k(  160) = (   0.2374349   0.5504283  -0.0671773), wk =   0.0039062
        k(  161) = (   0.2611901  -0.4114350  -0.0096505), wk =   0.0039062
        k(  162) = (   0.2594067  -0.4127760   0.0624821), wk =   0.0039062
        k(  163) = (   0.2576234  -0.4141170   0.1346148), wk =   0.0039062
        k(  164) = (   0.2558400  -0.4154580   0.2067475), wk =   0.0039062
        k(  165) = (   0.2683236  -0.4060711  -0.2981812), wk =   0.0039062
        k(  166) = (   0.2665402  -0.4074121  -0.2260486), wk =   0.0039062
        k(  167) = (   0.2647569  -0.4087531  -0.1539159), wk =   0.0039062
        k(  168) = (   0.2629735  -0.4100941  -0.0817832), wk =   0.0039062
        k(  169) = (   0.2575418  -0.2742176  -0.0075640), wk =   0.0039062
        k(  170) = (   0.2557584  -0.2755586   0.0645687), wk =   0.0039062
        k(  171) = (   0.2539750  -0.2768996   0.1367014), wk =   0.0039062
        k(  172) = (   0.2521916  -0.2782406   0.2088340), wk =   0.0039062
        k(  173) = (   0.2646752  -0.2688536  -0.2960947), wk =   0.0039062
        k(  174) = (   0.2628919  -0.2701946  -0.2239620), wk =   0.0039062
        k(  175) = (   0.2611085  -0.2715356  -0.1518293), wk =   0.0039062
        k(  176) = (   0.2593251  -0.2728766  -0.0796967), wk =   0.0039062
        k(  177) = (   0.2538934  -0.1370001  -0.0054774), wk =   0.0039062
        k(  178) = (   0.2521100  -0.1383411   0.0666552), wk =   0.0039062
        k(  179) = (   0.2503266  -0.1396821   0.1387879), wk =   0.0039062
        k(  180) = (   0.2485433  -0.1410231   0.2109206), wk =   0.0039062
        k(  181) = (   0.2610269  -0.1316361  -0.2940081), wk =   0.0039062
        k(  182) = (   0.2592435  -0.1329771  -0.2218754), wk =   0.0039062
        k(  183) = (   0.2574601  -0.1343181  -0.1497428), wk =   0.0039062
        k(  184) = (   0.2556768  -0.1356591  -0.0776101), wk =   0.0039062
        k(  185) = (   0.2502450   0.0002174  -0.0033909), wk =   0.0039062
        k(  186) = (   0.2484616  -0.0011236   0.0687418), wk =   0.0039062
        k(  187) = (   0.2466783  -0.0024646   0.1408745), wk =   0.0039062
        k(  188) = (   0.2448949  -0.0038056   0.2130071), wk =   0.0039062
        k(  189) = (   0.2573785   0.0055814  -0.2919216), wk =   0.0039062
        k(  190) = (   0.2555951   0.0042404  -0.2197889), wk =   0.0039062
        k(  191) = (   0.2538118   0.0028994  -0.1476562), wk =   0.0039062
        k(  192) = (   0.2520284   0.0015584  -0.0755235), wk =   0.0039062
        k(  193) = (   0.3698950   0.2061523  -0.0019565), wk =   0.0039062
        k(  194) = (   0.3681116   0.2048113   0.0701762), wk =   0.0039062
        k(  195) = (   0.3663282   0.2034703   0.1423089), wk =   0.0039062
        k(  196) = (   0.3645449   0.2021293   0.2144415), wk =   0.0039062
        k(  197) = (   0.3770285   0.2115163  -0.2904872), wk =   0.0039062
        k(  198) = (   0.3752451   0.2101753  -0.2183545), wk =   0.0039062
        k(  199) = (   0.3734617   0.2088343  -0.1462218), wk =   0.0039062
        k(  200) = (   0.3716783   0.2074933  -0.0740892), wk =   0.0039062
        k(  201) = (   0.3662466   0.3433697   0.0001301), wk =   0.0039062
        k(  202) = (   0.3644632   0.3420287   0.0722627), wk =   0.0039062
        k(  203) = (   0.3626799   0.3406877   0.1443954), wk =   0.0039062
        k(  204) = (   0.3608965   0.3393467   0.2165281), wk =   0.0039062
        k(  205) = (   0.3733801   0.3487337  -0.2884006), wk =   0.0039062
        k(  206) = (   0.3715967   0.3473927  -0.2162679), wk =   0.0039062
        k(  207) = (   0.3698134   0.3460517  -0.1441353), wk =   0.0039062
        k(  208) = (   0.3680300   0.3447107  -0.0720026), wk =   0.0039062
        k(  209) = (   0.3625982   0.4805872   0.0022166), wk =   0.0039062
        k(  210) = (   0.3608149   0.4792462   0.0743493), wk =   0.0039062
        k(  211) = (   0.3590315   0.4779052   0.1464820), wk =   0.0039062
        k(  212) = (   0.3572481   0.4765642   0.2186146), wk =   0.0039062
        k(  213) = (   0.3697317   0.4859512  -0.2863141), wk =   0.0039062
        k(  214) = (   0.3679484   0.4846102  -0.2141814), wk =   0.0039062
        k(  215) = (   0.3661650   0.4832692  -0.1420487), wk =   0.0039062
        k(  216) = (   0.3643816   0.4819282  -0.0699160), wk =   0.0039062
        k(  217) = (   0.3589499   0.6178047   0.0043032), wk =   0.0039062
        k(  218) = (   0.3571665   0.6164637   0.0764359), wk =   0.0039062
        k(  219) = (   0.3553831   0.6151227   0.1485685), wk =   0.0039062
        k(  220) = (   0.3535998   0.6137817   0.2207012), wk =   0.0039062
        k(  221) = (   0.3660834   0.6231687  -0.2842275), wk =   0.0039062
        k(  222) = (   0.3643000   0.6218277  -0.2120948), wk =   0.0039062
        k(  223) = (   0.3625166   0.6204867  -0.1399622), wk =   0.0039062
        k(  224) = (   0.3607332   0.6191457  -0.0678295), wk =   0.0039062
        k(  225) = (   0.3844884  -0.3427176  -0.0103027), wk =   0.0039062
        k(  226) = (   0.3827051  -0.3440586   0.0618300), wk =   0.0039062
        k(  227) = (   0.3809217  -0.3453996   0.1339626), wk =   0.0039062
        k(  228) = (   0.3791383  -0.3467406   0.2060953), wk =   0.0039062
        k(  229) = (   0.3916219  -0.3373536  -0.2988334), wk =   0.0039062
        k(  230) = (   0.3898386  -0.3386946  -0.2267007), wk =   0.0039062
        k(  231) = (   0.3880552  -0.3400356  -0.1545680), wk =   0.0039062
        k(  232) = (   0.3862718  -0.3413766  -0.0824354), wk =   0.0039062
        k(  233) = (   0.3808401  -0.2055002  -0.0082161), wk =   0.0039062
        k(  234) = (   0.3790567  -0.2068412   0.0639165), wk =   0.0039062
        k(  235) = (   0.3772733  -0.2081822   0.1360492), wk =   0.0039062
        k(  236) = (   0.3754900  -0.2095231   0.2081819), wk =   0.0039062
        k(  237) = (   0.3879736  -0.2001362  -0.2967468), wk =   0.0039062
        k(  238) = (   0.3861902  -0.2014772  -0.2246142), wk =   0.0039062
        k(  239) = (   0.3844068  -0.2028182  -0.1524815), wk =   0.0039062
        k(  240) = (   0.3826234  -0.2041592  -0.0803488), wk =   0.0039062
        k(  241) = (   0.3771917  -0.0682827  -0.0061296), wk =   0.0039062
        k(  242) = (   0.3754083  -0.0696237   0.0660031), wk =   0.0039062
        k(  243) = (   0.3736250  -0.0709647   0.1381358), wk =   0.0039062
        k(  244) = (   0.3718416  -0.0723057   0.2102684), wk =   0.0039062
        k(  245) = (   0.3843252  -0.0629187  -0.2946603), wk =   0.0039062
        k(  246) = (   0.3825418  -0.0642597  -0.2225276), wk =   0.0039062
        k(  247) = (   0.3807585  -0.0656007  -0.1503949), wk =   0.0039062
        k(  248) = (   0.3789751  -0.0669417  -0.0782623), wk =   0.0039062
        k(  249) = (   0.3735433   0.0689348  -0.0040430), wk =   0.0039062
        k(  250) = (   0.3717600   0.0675938   0.0680896), wk =   0.0039062
        k(  251) = (   0.3699766   0.0662528   0.1402223), wk =   0.0039062
        k(  252) = (   0.3681932   0.0649118   0.2123550), wk =   0.0039062
        k(  253) = (   0.3806768   0.0742988  -0.2925737), wk =   0.0039062
        k(  254) = (   0.3788935   0.0729578  -0.2204410), wk =   0.0039062
        k(  255) = (   0.3771101   0.0716168  -0.1483084), wk =   0.0039062
        k(  256) = (   0.3753267   0.0702758  -0.0761757), wk =   0.0039062
        k(  257) = (  -0.4931933  -0.2748697   0.0026086), wk =   0.0039062
        k(  258) = (  -0.4949767  -0.2762107   0.0747413), wk =   0.0039062
        k(  259) = (  -0.4967600  -0.2775517   0.1468740), wk =   0.0039062
        k(  260) = (  -0.4985434  -0.2788927   0.2190067), wk =   0.0039062
        k(  261) = (  -0.4860598  -0.2695057  -0.2859220), wk =   0.0039062
        k(  262) = (  -0.4878432  -0.2708467  -0.2137894), wk =   0.0039062
        k(  263) = (  -0.4896266  -0.2721877  -0.1416567), wk =   0.0039062
        k(  264) = (  -0.4914099  -0.2735287  -0.0695240), wk =   0.0039062
        k(  265) = (  -0.4968417  -0.1376522   0.0046952), wk =   0.0039062
        k(  266) = (  -0.4986250  -0.1389932   0.0768279), wk =   0.0039062
        k(  267) = (  -0.5004084  -0.1403342   0.1489605), wk =   0.0039062
        k(  268) = (  -0.5021918  -0.1416752   0.2210932), wk =   0.0039062
        k(  269) = (  -0.4897082  -0.1322882  -0.2838355), wk =   0.0039062
        k(  270) = (  -0.4914916  -0.1336292  -0.2117028), wk =   0.0039062
        k(  271) = (  -0.4932749  -0.1349702  -0.1395701), wk =   0.0039062
        k(  272) = (  -0.4950583  -0.1363112  -0.0674375), wk =   0.0039062
        k(  273) = (  -0.5004900  -0.0004347   0.0067818), wk =   0.0039062
        k(  274) = (  -0.5022734  -0.0017757   0.0789144), wk =   0.0039062
        k(  275) = (  -0.5040568  -0.0031167   0.1510471), wk =   0.0039062
        k(  276) = (  -0.5058401  -0.0044577   0.2231798), wk =   0.0039062
        k(  277) = (  -0.4933566   0.0049293  -0.2817489), wk =   0.0039062
        k(  278) = (  -0.4951399   0.0035883  -0.2096163), wk =   0.0039062
        k(  279) = (  -0.4969233   0.0022473  -0.1374836), wk =   0.0039062
        k(  280) = (  -0.4987067   0.0009063  -0.0653509), wk =   0.0039062
        k(  281) = (  -0.5041384   0.1367827   0.0088683), wk =   0.0039062
        k(  282) = (  -0.5059218   0.1354417   0.0810010), wk =   0.0039062
        k(  283) = (  -0.5077051   0.1341007   0.1531336), wk =   0.0039062
        k(  284) = (  -0.5094885   0.1327597   0.2252663), wk =   0.0039062
        k(  285) = (  -0.4970049   0.1421467  -0.2796624), wk =   0.0039062
        k(  286) = (  -0.4987883   0.1408057  -0.2075297), wk =   0.0039062
        k(  287) = (  -0.5005717   0.1394647  -0.1353970), wk =   0.0039062
        k(  288) = (  -0.5023550   0.1381237  -0.0632644), wk =   0.0039062
        k(  289) = (  -0.4785998  -0.8237396  -0.0057376), wk =   0.0039062
        k(  290) = (  -0.4803832  -0.8250806   0.0663951), wk =   0.0039062
        k(  291) = (  -0.4821666  -0.8264216   0.1385278), wk =   0.0039062
        k(  292) = (  -0.4839499  -0.8277626   0.2106604), wk =   0.0039062
        k(  293) = (  -0.4714664  -0.8183756  -0.2942683), wk =   0.0039062
        k(  294) = (  -0.4732497  -0.8197166  -0.2221356), wk =   0.0039062
        k(  295) = (  -0.4750331  -0.8210576  -0.1500029), wk =   0.0039062
        k(  296) = (  -0.4768165  -0.8223986  -0.0778702), wk =   0.0039062
        k(  297) = (  -0.4822482  -0.6865221  -0.0036510), wk =   0.0039062
        k(  298) = (  -0.4840316  -0.6878631   0.0684817), wk =   0.0039062
        k(  299) = (  -0.4858149  -0.6892041   0.1406143), wk =   0.0039062
        k(  300) = (  -0.4875983  -0.6905451   0.2127470), wk =   0.0039062
        k(  301) = (  -0.4751147  -0.6811581  -0.2921817), wk =   0.0039062
        k(  302) = (  -0.4768981  -0.6824991  -0.2200490), wk =   0.0039062
        k(  303) = (  -0.4786815  -0.6838401  -0.1479164), wk =   0.0039062
        k(  304) = (  -0.4804648  -0.6851811  -0.0757837), wk =   0.0039062
        k(  305) = (  -0.4858966  -0.5493046  -0.0015645), wk =   0.0039062
        k(  306) = (  -0.4876799  -0.5506456   0.0705682), wk =   0.0039062
        k(  307) = (  -0.4894633  -0.5519866   0.1427009), wk =   0.0039062
        k(  308) = (  -0.4912467  -0.5533276   0.2148335), wk =   0.0039062
        k(  309) = (  -0.4787631  -0.5439406  -0.2900951), wk =   0.0039062
        k(  310) = (  -0.4805465  -0.5452816  -0.2179625), wk =   0.0039062
        k(  311) = (  -0.4823298  -0.5466226  -0.1458298), wk =   0.0039062
        k(  312) = (  -0.4841132  -0.5479636  -0.0736971), wk =   0.0039062
        k(  313) = (  -0.4895449  -0.4120872   0.0005221), wk =   0.0039062
        k(  314) = (  -0.4913283  -0.4134282   0.0726548), wk =   0.0039062
        k(  315) = (  -0.4931117  -0.4147692   0.1447874), wk =   0.0039062
        k(  316) = (  -0.4948950  -0.4161102   0.2169201), wk =   0.0039062
        k(  317) = (  -0.4824115  -0.4067232  -0.2880086), wk =   0.0039062
        k(  318) = (  -0.4841948  -0.4080642  -0.2158759), wk =   0.0039062
        k(  319) = (  -0.4859782  -0.4094052  -0.1437433), wk =   0.0039062
        k(  320) = (  -0.4877616  -0.4107462  -0.0716106), wk =   0.0039062
        k(  321) = (  -0.3698950  -0.2061523   0.0019565), wk =   0.0039062
        k(  322) = (  -0.3716783  -0.2074933   0.0740892), wk =   0.0039062
        k(  323) = (  -0.3734617  -0.2088343   0.1462218), wk =   0.0039062
        k(  324) = (  -0.3752451  -0.2101753   0.2183545), wk =   0.0039062
        k(  325) = (  -0.3627615  -0.2007883  -0.2865742), wk =   0.0039062
        k(  326) = (  -0.3645449  -0.2021293  -0.2144415), wk =   0.0039062
        k(  327) = (  -0.3663282  -0.2034703  -0.1423089), wk =   0.0039062
        k(  328) = (  -0.3681116  -0.2048113  -0.0701762), wk =   0.0039062
        k(  329) = (  -0.3735433  -0.0689348   0.0040430), wk =   0.0039062
        k(  330) = (  -0.3753267  -0.0702758   0.0761757), wk =   0.0039062
        k(  331) = (  -0.3771101  -0.0716168   0.1483084), wk =   0.0039062
        k(  332) = (  -0.3788935  -0.0729578   0.2204410), wk =   0.0039062
        k(  333) = (  -0.3664099  -0.0635708  -0.2844876), wk =   0.0039062
        k(  334) = (  -0.3681932  -0.0649118  -0.2123550), wk =   0.0039062
        k(  335) = (  -0.3699766  -0.0662528  -0.1402223), wk =   0.0039062
        k(  336) = (  -0.3717600  -0.0675938  -0.0680896), wk =   0.0039062
        k(  337) = (  -0.3771917   0.0682827   0.0061296), wk =   0.0039062
        k(  338) = (  -0.3789751   0.0669417   0.0782623), wk =   0.0039062
        k(  339) = (  -0.3807585   0.0656007   0.1503949), wk =   0.0039062
        k(  340) = (  -0.3825418   0.0642597   0.2225276), wk =   0.0039062
        k(  341) = (  -0.3700582   0.0736467  -0.2824011), wk =   0.0039062
        k(  342) = (  -0.3718416   0.0723057  -0.2102684), wk =   0.0039062
        k(  343) = (  -0.3736250   0.0709647  -0.1381358), wk =   0.0039062
        k(  344) = (  -0.3754083   0.0696237  -0.0660031), wk =   0.0039062
        k(  345) = (  -0.3808401   0.2055002   0.0082161), wk =   0.0039062
        k(  346) = (  -0.3826234   0.2041592   0.0803488), wk =   0.0039062
        k(  347) = (  -0.3844068   0.2028182   0.1524815), wk =   0.0039062
        k(  348) = (  -0.3861902   0.2014772   0.2246142), wk =   0.0039062
        k(  349) = (  -0.3737066   0.2108641  -0.2803145), wk =   0.0039062
        k(  350) = (  -0.3754900   0.2095231  -0.2081819), wk =   0.0039062
        k(  351) = (  -0.3772733   0.2081822  -0.1360492), wk =   0.0039062
        k(  352) = (  -0.3790567   0.2068412  -0.0639165), wk =   0.0039062
        k(  353) = (  -0.3553015  -0.7550222  -0.0063897), wk =   0.0039062
        k(  354) = (  -0.3570849  -0.7563632   0.0657429), wk =   0.0039062
        k(  355) = (  -0.3588683  -0.7577042   0.1378756), wk =   0.0039062
        k(  356) = (  -0.3606516  -0.7590451   0.2100083), wk =   0.0039062
        k(  357) = (  -0.3481680  -0.7496582  -0.2949204), wk =   0.0039062
        k(  358) = (  -0.3499514  -0.7509992  -0.2227877), wk =   0.0039062
        k(  359) = (  -0.3517348  -0.7523402  -0.1506551), wk =   0.0039062
        k(  360) = (  -0.3535181  -0.7536812  -0.0785224), wk =   0.0039062
        k(  361) = (  -0.3589499  -0.6178047  -0.0043032), wk =   0.0039062
        k(  362) = (  -0.3607332  -0.6191457   0.0678295), wk =   0.0039062
        k(  363) = (  -0.3625166  -0.6204867   0.1399622), wk =   0.0039062
        k(  364) = (  -0.3643000  -0.6218277   0.2120948), wk =   0.0039062
        k(  365) = (  -0.3518164  -0.6124407  -0.2928339), wk =   0.0039062
        k(  366) = (  -0.3535998  -0.6137817  -0.2207012), wk =   0.0039062
        k(  367) = (  -0.3553831  -0.6151227  -0.1485685), wk =   0.0039062
        k(  368) = (  -0.3571665  -0.6164637  -0.0764359), wk =   0.0039062
        k(  369) = (  -0.3625982  -0.4805872  -0.0022166), wk =   0.0039062
        k(  370) = (  -0.3643816  -0.4819282   0.0699160), wk =   0.0039062
        k(  371) = (  -0.3661650  -0.4832692   0.1420487), wk =   0.0039062
        k(  372) = (  -0.3679484  -0.4846102   0.2141814), wk =   0.0039062
        k(  373) = (  -0.3554648  -0.4752232  -0.2907473), wk =   0.0039062
        k(  374) = (  -0.3572481  -0.4765642  -0.2186146), wk =   0.0039062
        k(  375) = (  -0.3590315  -0.4779052  -0.1464820), wk =   0.0039062
        k(  376) = (  -0.3608149  -0.4792462  -0.0743493), wk =   0.0039062
        k(  377) = (  -0.3662466  -0.3433697  -0.0001301), wk =   0.0039062
        k(  378) = (  -0.3680300  -0.3447107   0.0720026), wk =   0.0039062
        k(  379) = (  -0.3698134  -0.3460517   0.1441353), wk =   0.0039062
        k(  380) = (  -0.3715967  -0.3473927   0.2162679), wk =   0.0039062
        k(  381) = (  -0.3591131  -0.3380057  -0.2886608), wk =   0.0039062
        k(  382) = (  -0.3608965  -0.3393467  -0.2165281), wk =   0.0039062
        k(  383) = (  -0.3626799  -0.3406877  -0.1443954), wk =   0.0039062
        k(  384) = (  -0.3644632  -0.3420287  -0.0722627), wk =   0.0039062
        k(  385) = (  -0.2465967  -0.1374348   0.0013043), wk =   0.0039062
        k(  386) = (  -0.2483800  -0.1387758   0.0734370), wk =   0.0039062
        k(  387) = (  -0.2501634  -0.1401168   0.1455697), wk =   0.0039062
        k(  388) = (  -0.2519468  -0.1414578   0.2177023), wk =   0.0039062
        k(  389) = (  -0.2394632  -0.1320709  -0.2872264), wk =   0.0039062
        k(  390) = (  -0.2412465  -0.1334118  -0.2150937), wk =   0.0039062
        k(  391) = (  -0.2430299  -0.1347528  -0.1429610), wk =   0.0039062
        k(  392) = (  -0.2448133  -0.1360938  -0.0708283), wk =   0.0039062
        k(  393) = (  -0.2502450  -0.0002174   0.0033909), wk =   0.0039062
        k(  394) = (  -0.2520284  -0.0015584   0.0755235), wk =   0.0039062
        k(  395) = (  -0.2538118  -0.0028994   0.1476562), wk =   0.0039062
        k(  396) = (  -0.2555951  -0.0042404   0.2197889), wk =   0.0039062
        k(  397) = (  -0.2431115   0.0051466  -0.2851398), wk =   0.0039062
        k(  398) = (  -0.2448949   0.0038056  -0.2130071), wk =   0.0039062
        k(  399) = (  -0.2466783   0.0024646  -0.1408745), wk =   0.0039062
        k(  400) = (  -0.2484616   0.0011236  -0.0687418), wk =   0.0039062
        k(  401) = (  -0.2538934   0.1370001   0.0054774), wk =   0.0039062
        k(  402) = (  -0.2556768   0.1356591   0.0776101), wk =   0.0039062
        k(  403) = (  -0.2574601   0.1343181   0.1497428), wk =   0.0039062
        k(  404) = (  -0.2592435   0.1329771   0.2218754), wk =   0.0039062
        k(  405) = (  -0.2467599   0.1423641  -0.2830533), wk =   0.0039062
        k(  406) = (  -0.2485433   0.1410231  -0.2109206), wk =   0.0039062
        k(  407) = (  -0.2503266   0.1396821  -0.1387879), wk =   0.0039062
        k(  408) = (  -0.2521100   0.1383411  -0.0666552), wk =   0.0039062
        k(  409) = (  -0.2575418   0.2742176   0.0075640), wk =   0.0039062
        k(  410) = (  -0.2593251   0.2728766   0.0796967), wk =   0.0039062
        k(  411) = (  -0.2611085   0.2715356   0.1518293), wk =   0.0039062
        k(  412) = (  -0.2628919   0.2701946   0.2239620), wk =   0.0039062
        k(  413) = (  -0.2504083   0.2795816  -0.2809667), wk =   0.0039062
        k(  414) = (  -0.2521916   0.2782406  -0.2088340), wk =   0.0039062
        k(  415) = (  -0.2539750   0.2768996  -0.1367014), wk =   0.0039062
        k(  416) = (  -0.2557584   0.2755586  -0.0645687), wk =   0.0039062
        k(  417) = (  -0.2320032  -0.6863047  -0.0070419), wk =   0.0039062
        k(  418) = (  -0.2337866  -0.6876457   0.0650908), wk =   0.0039062
        k(  419) = (  -0.2355699  -0.6889867   0.1372234), wk =   0.0039062
        k(  420) = (  -0.2373533  -0.6903277   0.2093561), wk =   0.0039062
        k(  421) = (  -0.2248697  -0.6809407  -0.2955726), wk =   0.0039062
        k(  422) = (  -0.2266531  -0.6822817  -0.2234399), wk =   0.0039062
        k(  423) = (  -0.2284364  -0.6836227  -0.1513072), wk =   0.0039062
        k(  424) = (  -0.2302198  -0.6849637  -0.0791746), wk =   0.0039062
        k(  425) = (  -0.2356516  -0.5490873  -0.0049553), wk =   0.0039062
        k(  426) = (  -0.2374349  -0.5504283   0.0671773), wk =   0.0039062
        k(  427) = (  -0.2392183  -0.5517693   0.1393100), wk =   0.0039062
        k(  428) = (  -0.2410017  -0.5531103   0.2114427), wk =   0.0039062
        k(  429) = (  -0.2285181  -0.5437233  -0.2934860), wk =   0.0039062
        k(  430) = (  -0.2303014  -0.5450643  -0.2213534), wk =   0.0039062
        k(  431) = (  -0.2320848  -0.5464053  -0.1492207), wk =   0.0039062
        k(  432) = (  -0.2338682  -0.5477463  -0.0770880), wk =   0.0039062
        k(  433) = (  -0.2392999  -0.4118698  -0.0028688), wk =   0.0039062
        k(  434) = (  -0.2410833  -0.4132108   0.0692639), wk =   0.0039062
        k(  435) = (  -0.2428667  -0.4145518   0.1413966), wk =   0.0039062
        k(  436) = (  -0.2446500  -0.4158928   0.2135292), wk =   0.0039062
        k(  437) = (  -0.2321664  -0.4065058  -0.2913995), wk =   0.0039062
        k(  438) = (  -0.2339498  -0.4078468  -0.2192668), wk =   0.0039062
        k(  439) = (  -0.2357332  -0.4091878  -0.1471341), wk =   0.0039062
        k(  440) = (  -0.2375165  -0.4105288  -0.0750015), wk =   0.0039062
        k(  441) = (  -0.2429483  -0.2746523  -0.0007822), wk =   0.0039062
        k(  442) = (  -0.2447317  -0.2759933   0.0713504), wk =   0.0039062
        k(  443) = (  -0.2465150  -0.2773343   0.1434831), wk =   0.0039062
        k(  444) = (  -0.2482984  -0.2786753   0.2156158), wk =   0.0039062
        k(  445) = (  -0.2358148  -0.2692883  -0.2893129), wk =   0.0039062
        k(  446) = (  -0.2375982  -0.2706293  -0.2171802), wk =   0.0039062
        k(  447) = (  -0.2393815  -0.2719703  -0.1450476), wk =   0.0039062
        k(  448) = (  -0.2411649  -0.2733113  -0.0729149), wk =   0.0039062
        k(  449) = (  -0.1232983  -0.0687174   0.0006522), wk =   0.0039062
        k(  450) = (  -0.1250817  -0.0700584   0.0727848), wk =   0.0039062
        k(  451) = (  -0.1268651  -0.0713994   0.1449175), wk =   0.0039062
        k(  452) = (  -0.1286484  -0.0727404   0.2170502), wk =   0.0039062
        k(  453) = (  -0.1161648  -0.0633534  -0.2878785), wk =   0.0039062
        k(  454) = (  -0.1179482  -0.0646944  -0.2157459), wk =   0.0039062
        k(  455) = (  -0.1197316  -0.0660354  -0.1436132), wk =   0.0039062
        k(  456) = (  -0.1215150  -0.0673764  -0.0714805), wk =   0.0039062
        k(  457) = (  -0.1269467   0.0685001   0.0027387), wk =   0.0039062
        k(  458) = (  -0.1287301   0.0671591   0.0748714), wk =   0.0039062
        k(  459) = (  -0.1305134   0.0658181   0.1470041), wk =   0.0039062
        k(  460) = (  -0.1322968   0.0644771   0.2191367), wk =   0.0039062
        k(  461) = (  -0.1198132   0.0738640  -0.2857920), wk =   0.0039062
        k(  462) = (  -0.1215966   0.0725230  -0.2136593), wk =   0.0039062
        k(  463) = (  -0.1233800   0.0711820  -0.1415266), wk =   0.0039062
        k(  464) = (  -0.1251633   0.0698410  -0.0693940), wk =   0.0039062
        k(  465) = (  -0.1305951   0.2057175   0.0048253), wk =   0.0039062
        k(  466) = (  -0.1323784   0.2043765   0.0769579), wk =   0.0039062
        k(  467) = (  -0.1341618   0.2030355   0.1490906), wk =   0.0039062
        k(  468) = (  -0.1359452   0.2016945   0.2212233), wk =   0.0039062
        k(  469) = (  -0.1234616   0.2110815  -0.2837054), wk =   0.0039062
        k(  470) = (  -0.1252449   0.2097405  -0.2115727), wk =   0.0039062
        k(  471) = (  -0.1270283   0.2083995  -0.1394401), wk =   0.0039062
        k(  472) = (  -0.1288117   0.2070585  -0.0673074), wk =   0.0039062
        k(  473) = (  -0.1342434   0.3429350   0.0069118), wk =   0.0039062
        k(  474) = (  -0.1360268   0.3415940   0.0790445), wk =   0.0039062
        k(  475) = (  -0.1378102   0.3402530   0.1511772), wk =   0.0039062
        k(  476) = (  -0.1395935   0.3389120   0.2233098), wk =   0.0039062
        k(  477) = (  -0.1271099   0.3482990  -0.2816189), wk =   0.0039062
        k(  478) = (  -0.1288933   0.3469580  -0.2094862), wk =   0.0039062
        k(  479) = (  -0.1306767   0.3456170  -0.1373535), wk =   0.0039062
        k(  480) = (  -0.1324601   0.3442760  -0.0652208), wk =   0.0039062
        k(  481) = (  -0.1087049  -0.6175873  -0.0076941), wk =   0.0039062
        k(  482) = (  -0.1104882  -0.6189283   0.0644386), wk =   0.0039062
        k(  483) = (  -0.1122716  -0.6202693   0.1365713), wk =   0.0039062
        k(  484) = (  -0.1140550  -0.6216103   0.2087040), wk =   0.0039062
        k(  485) = (  -0.1015714  -0.6122233  -0.2962247), wk =   0.0039062
        k(  486) = (  -0.1033547  -0.6135643  -0.2240921), wk =   0.0039062
        k(  487) = (  -0.1051381  -0.6149053  -0.1519594), wk =   0.0039062
        k(  488) = (  -0.1069215  -0.6162463  -0.0798267), wk =   0.0039062
        k(  489) = (  -0.1123532  -0.4803698  -0.0056075), wk =   0.0039062
        k(  490) = (  -0.1141366  -0.4817108   0.0665252), wk =   0.0039062
        k(  491) = (  -0.1159200  -0.4830518   0.1386578), wk =   0.0039062
        k(  492) = (  -0.1177033  -0.4843928   0.2107905), wk =   0.0039062
        k(  493) = (  -0.1052197  -0.4750058  -0.2941382), wk =   0.0039062
        k(  494) = (  -0.1070031  -0.4763468  -0.2220055), wk =   0.0039062
        k(  495) = (  -0.1087865  -0.4776878  -0.1498728), wk =   0.0039062
        k(  496) = (  -0.1105699  -0.4790288  -0.0777402), wk =   0.0039062
        k(  497) = (  -0.1160016  -0.3431524  -0.0035209), wk =   0.0039062
        k(  498) = (  -0.1177850  -0.3444934   0.0686117), wk =   0.0039062
        k(  499) = (  -0.1195683  -0.3458344   0.1407444), wk =   0.0039062
        k(  500) = (  -0.1213517  -0.3471754   0.2128771), wk =   0.0039062
        k(  501) = (  -0.1088681  -0.3377884  -0.2920516), wk =   0.0039062
        k(  502) = (  -0.1106515  -0.3391294  -0.2199190), wk =   0.0039062
        k(  503) = (  -0.1124349  -0.3404704  -0.1477863), wk =   0.0039062
        k(  504) = (  -0.1142182  -0.3418114  -0.0756536), wk =   0.0039062
        k(  505) = (  -0.1196500  -0.2059349  -0.0014344), wk =   0.0039062
        k(  506) = (  -0.1214333  -0.2072759   0.0706983), wk =   0.0039062
        k(  507) = (  -0.1232167  -0.2086169   0.1428309), wk =   0.0039062
        k(  508) = (  -0.1250001  -0.2099579   0.2149636), wk =   0.0039062
        k(  509) = (  -0.1125165  -0.2005709  -0.2899651), wk =   0.0039062
        k(  510) = (  -0.1142998  -0.2019119  -0.2178324), wk =   0.0039062
        k(  511) = (  -0.1160832  -0.2032529  -0.1456997), wk =   0.0039062
        k(  512) = (  -0.1178666  -0.2045939  -0.0735671), wk =   0.0039062

                       cryst. coord.
        k(    1) = (   0.0000000   0.0000000   0.0000000), wk =   0.0039062
        k(    2) = (   0.0000000   0.0000000   0.1250000), wk =   0.0039062
        k(    3) = (   0.0000000   0.0000000   0.2500000), wk =   0.0039062
        k(    4) = (   0.0000000  -0.0000000   0.3750000), wk =   0.0039062
        k(    5) = (   0.0000000   0.0000000  -0.5000000), wk =   0.0039062
        k(    6) = (  -0.0000000   0.0000000  -0.3750000), wk =   0.0039062
        k(    7) = (   0.0000000   0.0000000  -0.2500000), wk =   0.0039062
        k(    8) = (   0.0000000   0.0000000  -0.1250000), wk =   0.0039062
        k(    9) = (  -0.0000000   0.1250000   0.0000000), wk =   0.0039062
        k(   10) = (   0.0000000   0.1250000   0.1250000), wk =   0.0039062
        k(   11) = (   0.0000000   0.1250000   0.2500000), wk =   0.0039062
        k(   12) = (  -0.0000000   0.1250000   0.3750000), wk =   0.0039062
        k(   13) = (  -0.0000000   0.1250000  -0.5000000), wk =   0.0039062
        k(   14) = (  -0.0000000   0.1250000  -0.3750000), wk =   0.0039062
        k(   15) = (  -0.0000000   0.1250000  -0.2500000), wk =   0.0039062
        k(   16) = (  -0.0000000   0.1250000  -0.1250000), wk =   0.0039062
        k(   17) = (  -0.0000000   0.2500000   0.0000000), wk =   0.0039062
        k(   18) = (   0.0000000   0.2500000   0.1250000), wk =   0.0039062
        k(   19) = (   0.0000000   0.2500000   0.2500000), wk =   0.0039062
        k(   20) = (  -0.0000000   0.2500000   0.3750000), wk =   0.0039062
        k(   21) = (  -0.0000000   0.2500000  -0.5000000), wk =   0.0039062
        k(   22) = (  -0.0000000   0.2500000  -0.3750000), wk =   0.0039062
        k(   23) = (  -0.0000000   0.2500000  -0.2500000), wk =   0.0039062
        k(   24) = (  -0.0000000   0.2500000  -0.1250000), wk =   0.0039062
        k(   25) = (  -0.0000000   0.3750000   0.0000000), wk =   0.0039062
        k(   26) = (   0.0000000   0.3750000   0.1250000), wk =   0.0039062
        k(   27) = (  -0.0000000   0.3750000   0.2500000), wk =   0.0039062
        k(   28) = (   0.0000000   0.3750000   0.3750000), wk =   0.0039062
        k(   29) = (  -0.0000000   0.3750000  -0.5000000), wk =   0.0039062
        k(   30) = (  -0.0000000   0.3750000  -0.3750000), wk =   0.0039062
        k(   31) = (  -0.0000000   0.3750000  -0.2500000), wk =   0.0039062
        k(   32) = (  -0.0000000   0.3750000  -0.1250000), wk =   0.0039062
        k(   33) = (   0.0000000  -0.5000000  -0.0000000), wk =   0.0039062
        k(   34) = (   0.0000000  -0.5000000   0.1250000), wk =   0.0039062
        k(   35) = (   0.0000000  -0.5000000   0.2500000), wk =   0.0039062
        k(   36) = (   0.0000000  -0.5000000   0.3750000), wk =   0.0039062
        k(   37) = (  -0.0000000  -0.5000000  -0.5000000), wk =   0.0039062
        k(   38) = (   0.0000000  -0.5000000  -0.3750000), wk =   0.0039062
        k(   39) = (  -0.0000000  -0.5000000  -0.2500000), wk =   0.0039062
        k(   40) = (   0.0000000  -0.5000000  -0.1250000), wk =   0.0039062
        k(   41) = (   0.0000000  -0.3750000  -0.0000000), wk =   0.0039062
        k(   42) = (   0.0000000  -0.3750000   0.1250000), wk =   0.0039062
        k(   43) = (   0.0000000  -0.3750000   0.2500000), wk =   0.0039062
        k(   44) = (   0.0000000  -0.3750000   0.3750000), wk =   0.0039062
        k(   45) = (   0.0000000  -0.3750000  -0.5000000), wk =   0.0039062
        k(   46) = (  -0.0000000  -0.3750000  -0.3750000), wk =   0.0039062
        k(   47) = (   0.0000000  -0.3750000  -0.2500000), wk =   0.0039062
        k(   48) = (   0.0000000  -0.3750000  -0.1250000), wk =   0.0039062
        k(   49) = (   0.0000000  -0.2500000  -0.0000000), wk =   0.0039062
        k(   50) = (   0.0000000  -0.2500000   0.1250000), wk =   0.0039062
        k(   51) = (   0.0000000  -0.2500000   0.2500000), wk =   0.0039062
        k(   52) = (   0.0000000  -0.2500000   0.3750000), wk =   0.0039062
        k(   53) = (   0.0000000  -0.2500000  -0.5000000), wk =   0.0039062
        k(   54) = (   0.0000000  -0.2500000  -0.3750000), wk =   0.0039062
        k(   55) = (  -0.0000000  -0.2500000  -0.2500000), wk =   0.0039062
        k(   56) = (  -0.0000000  -0.2500000  -0.1250000), wk =   0.0039062
        k(   57) = (   0.0000000  -0.1250000  -0.0000000), wk =   0.0039062
        k(   58) = (   0.0000000  -0.1250000   0.1250000), wk =   0.0039062
        k(   59) = (   0.0000000  -0.1250000   0.2500000), wk =   0.0039062
        k(   60) = (   0.0000000  -0.1250000   0.3750000), wk =   0.0039062
        k(   61) = (   0.0000000  -0.1250000  -0.5000000), wk =   0.0039062
        k(   62) = (   0.0000000  -0.1250000  -0.3750000), wk =   0.0039062
        k(   63) = (   0.0000000  -0.1250000  -0.2500000), wk =   0.0039062
        k(   64) = (  -0.0000000  -0.1250000  -0.1250000), wk =   0.0039062
        k(   65) = (   0.1250000   0.0000000  -0.0000000), wk =   0.0039062
        k(   66) = (   0.1250000   0.0000000   0.1250000), wk =   0.0039062
        k(   67) = (   0.1250000  -0.0000000   0.2500000), wk =   0.0039062
        k(   68) = (   0.1250000  -0.0000000   0.3750000), wk =   0.0039062
        k(   69) = (   0.1250000   0.0000000  -0.5000000), wk =   0.0039062
        k(   70) = (   0.1250000   0.0000000  -0.3750000), wk =   0.0039062
        k(   71) = (   0.1250000   0.0000000  -0.2500000), wk =   0.0039062
        k(   72) = (   0.1250000  -0.0000000  -0.1250000), wk =   0.0039062
        k(   73) = (   0.1250000   0.1250000  -0.0000000), wk =   0.0039062
        k(   74) = (   0.1250000   0.1250000   0.1250000), wk =   0.0039062
        k(   75) = (   0.1250000   0.1250000   0.2500000), wk =   0.0039062
        k(   76) = (   0.1250000   0.1250000   0.3750000), wk =   0.0039062
        k(   77) = (   0.1250000   0.1250000  -0.5000000), wk =   0.0039062
        k(   78) = (   0.1250000   0.1250000  -0.3750000), wk =   0.0039062
        k(   79) = (   0.1250000   0.1250000  -0.2500000), wk =   0.0039062
        k(   80) = (   0.1250000   0.1250000  -0.1250000), wk =   0.0039062
        k(   81) = (   0.1250000   0.2500000   0.0000000), wk =   0.0039062
        k(   82) = (   0.1250000   0.2500000   0.1250000), wk =   0.0039062
        k(   83) = (   0.1250000   0.2500000   0.2500000), wk =   0.0039062
        k(   84) = (   0.1250000   0.2500000   0.3750000), wk =   0.0039062
        k(   85) = (   0.1250000   0.2500000  -0.5000000), wk =   0.0039062
        k(   86) = (   0.1250000   0.2500000  -0.3750000), wk =   0.0039062
        k(   87) = (   0.1250000   0.2500000  -0.2500000), wk =   0.0039062
        k(   88) = (   0.1250000   0.2500000  -0.1250000), wk =   0.0039062
        k(   89) = (   0.1250000   0.3750000   0.0000000), wk =   0.0039062
        k(   90) = (   0.1250000   0.3750000   0.1250000), wk =   0.0039062
        k(   91) = (   0.1250000   0.3750000   0.2500000), wk =   0.0039062
        k(   92) = (   0.1250000   0.3750000   0.3750000), wk =   0.0039062
        k(   93) = (   0.1250000   0.3750000  -0.5000000), wk =   0.0039062
        k(   94) = (   0.1250000   0.3750000  -0.3750000), wk =   0.0039062
        k(   95) = (   0.1250000   0.3750000  -0.2500000), wk =   0.0039062
        k(   96) = (   0.1250000   0.3750000  -0.1250000), wk =   0.0039062
        k(   97) = (   0.1250000  -0.5000000  -0.0000000), wk =   0.0039062
        k(   98) = (   0.1250000  -0.5000000   0.1250000), wk =   0.0039062
        k(   99) = (   0.1250000  -0.5000000   0.2500000), wk =   0.0039062
        k(  100) = (   0.1250000  -0.5000000   0.3750000), wk =   0.0039062
        k(  101) = (   0.1250000  -0.5000000  -0.5000000), wk =   0.0039062
        k(  102) = (   0.1250000  -0.5000000  -0.3750000), wk =   0.0039062
        k(  103) = (   0.1250000  -0.5000000  -0.2500000), wk =   0.0039062
        k(  104) = (   0.1250000  -0.5000000  -0.1250000), wk =   0.0039062
        k(  105) = (   0.1250000  -0.3750000  -0.0000000), wk =   0.0039062
        k(  106) = (   0.1250000  -0.3750000   0.1250000), wk =   0.0039062
        k(  107) = (   0.1250000  -0.3750000   0.2500000), wk =   0.0039062
        k(  108) = (   0.1250000  -0.3750000   0.3750000), wk =   0.0039062
        k(  109) = (   0.1250000  -0.3750000  -0.5000000), wk =   0.0039062
        k(  110) = (   0.1250000  -0.3750000  -0.3750000), wk =   0.0039062
        k(  111) = (   0.1250000  -0.3750000  -0.2500000), wk =   0.0039062
        k(  112) = (   0.1250000  -0.3750000  -0.1250000), wk =   0.0039062
        k(  113) = (   0.1250000  -0.2500000  -0.0000000), wk =   0.0039062
        k(  114) = (   0.1250000  -0.2500000   0.1250000), wk =   0.0039062
        k(  115) = (   0.1250000  -0.2500000   0.2500000), wk =   0.0039062
        k(  116) = (   0.1250000  -0.2500000   0.3750000), wk =   0.0039062
        k(  117) = (   0.1250000  -0.2500000  -0.5000000), wk =   0.0039062
        k(  118) = (   0.1250000  -0.2500000  -0.3750000), wk =   0.0039062
        k(  119) = (   0.1250000  -0.2500000  -0.2500000), wk =   0.0039062
        k(  120) = (   0.1250000  -0.2500000  -0.1250000), wk =   0.0039062
        k(  121) = (   0.1250000  -0.1250000   0.0000000), wk =   0.0039062
        k(  122) = (   0.1250000  -0.1250000   0.1250000), wk =   0.0039062
        k(  123) = (   0.1250000  -0.1250000   0.2500000), wk =   0.0039062
        k(  124) = (   0.1250000  -0.1250000   0.3750000), wk =   0.0039062
        k(  125) = (   0.1250000  -0.1250000  -0.5000000), wk =   0.0039062
        k(  126) = (   0.1250000  -0.1250000  -0.3750000), wk =   0.0039062
        k(  127) = (   0.1250000  -0.1250000  -0.2500000), wk =   0.0039062
        k(  128) = (   0.1250000  -0.1250000  -0.1250000), wk =   0.0039062
        k(  129) = (   0.2500000   0.0000000  -0.0000000), wk =   0.0039062
        k(  130) = (   0.2500000   0.0000000   0.1250000), wk =   0.0039062
        k(  131) = (   0.2500000   0.0000000   0.2500000), wk =   0.0039062
        k(  132) = (   0.2500000   0.0000000   0.3750000), wk =   0.0039062
        k(  133) = (   0.2500000   0.0000000  -0.5000000), wk =   0.0039062
        k(  134) = (   0.2500000  -0.0000000  -0.3750000), wk =   0.0039062
        k(  135) = (   0.2500000  -0.0000000  -0.2500000), wk =   0.0039062
        k(  136) = (   0.2500000  -0.0000000  -0.1250000), wk =   0.0039062
        k(  137) = (   0.2500000   0.1250000   0.0000000), wk =   0.0039062
        k(  138) = (   0.2500000   0.1250000   0.1250000), wk =   0.0039062
        k(  139) = (   0.2500000   0.1250000   0.2500000), wk =   0.0039062
        k(  140) = (   0.2500000   0.1250000   0.3750000), wk =   0.0039062
        k(  141) = (   0.2500000   0.1250000  -0.5000000), wk =   0.0039062
        k(  142) = (   0.2500000   0.1250000  -0.3750000), wk =   0.0039062
        k(  143) = (   0.2500000   0.1250000  -0.2500000), wk =   0.0039062
        k(  144) = (   0.2500000   0.1250000  -0.1250000), wk =   0.0039062
        k(  145) = (   0.2500000   0.2500000  -0.0000000), wk =   0.0039062
        k(  146) = (   0.2500000   0.2500000   0.1250000), wk =   0.0039062
        k(  147) = (   0.2500000   0.2500000   0.2500000), wk =   0.0039062
        k(  148) = (   0.2500000   0.2500000   0.3750000), wk =   0.0039062
        k(  149) = (   0.2500000   0.2500000  -0.5000000), wk =   0.0039062
        k(  150) = (   0.2500000   0.2500000  -0.3750000), wk =   0.0039062
        k(  151) = (   0.2500000   0.2500000  -0.2500000), wk =   0.0039062
        k(  152) = (   0.2500000   0.2500000  -0.1250000), wk =   0.0039062
        k(  153) = (   0.2500000   0.3750000   0.0000000), wk =   0.0039062
        k(  154) = (   0.2500000   0.3750000   0.1250000), wk =   0.0039062
        k(  155) = (   0.2500000   0.3750000   0.2500000), wk =   0.0039062
        k(  156) = (   0.2500000   0.3750000   0.3750000), wk =   0.0039062
        k(  157) = (   0.2500000   0.3750000  -0.5000000), wk =   0.0039062
        k(  158) = (   0.2500000   0.3750000  -0.3750000), wk =   0.0039062
        k(  159) = (   0.2500000   0.3750000  -0.2500000), wk =   0.0039062
        k(  160) = (   0.2500000   0.3750000  -0.1250000), wk =   0.0039062
        k(  161) = (   0.2500000  -0.5000000  -0.0000000), wk =   0.0039062
        k(  162) = (   0.2500000  -0.5000000   0.1250000), wk =   0.0039062
        k(  163) = (   0.2500000  -0.5000000   0.2500000), wk =   0.0039062
        k(  164) = (   0.2500000  -0.5000000   0.3750000), wk =   0.0039062
        k(  165) = (   0.2500000  -0.5000000  -0.5000000), wk =   0.0039062
        k(  166) = (   0.2500000  -0.5000000  -0.3750000), wk =   0.0039062
        k(  167) = (   0.2500000  -0.5000000  -0.2500000), wk =   0.0039062
        k(  168) = (   0.2500000  -0.5000000  -0.1250000), wk =   0.0039062
        k(  169) = (   0.2500000  -0.3750000  -0.0000000), wk =   0.0039062
        k(  170) = (   0.2500000  -0.3750000   0.1250000), wk =   0.0039062
        k(  171) = (   0.2500000  -0.3750000   0.2500000), wk =   0.0039062
        k(  172) = (   0.2500000  -0.3750000   0.3750000), wk =   0.0039062
        k(  173) = (   0.2500000  -0.3750000  -0.5000000), wk =   0.0039062
        k(  174) = (   0.2500000  -0.3750000  -0.3750000), wk =   0.0039062
        k(  175) = (   0.2500000  -0.3750000  -0.2500000), wk =   0.0039062
        k(  176) = (   0.2500000  -0.3750000  -0.1250000), wk =   0.0039062
        k(  177) = (   0.2500000  -0.2500000   0.0000000), wk =   0.0039062
        k(  178) = (   0.2500000  -0.2500000   0.1250000), wk =   0.0039062
        k(  179) = (   0.2500000  -0.2500000   0.2500000), wk =   0.0039062
        k(  180) = (   0.2500000  -0.2500000   0.3750000), wk =   0.0039062
        k(  181) = (   0.2500000  -0.2500000  -0.5000000), wk =   0.0039062
        k(  182) = (   0.2500000  -0.2500000  -0.3750000), wk =   0.0039062
        k(  183) = (   0.2500000  -0.2500000  -0.2500000), wk =   0.0039062
        k(  184) = (   0.2500000  -0.2500000  -0.1250000), wk =   0.0039062
        k(  185) = (   0.2500000  -0.1250000   0.0000000), wk =   0.0039062
        k(  186) = (   0.2500000  -0.1250000   0.1250000), wk =   0.0039062
        k(  187) = (   0.2500000  -0.1250000   0.2500000), wk =   0.0039062
        k(  188) = (   0.2500000  -0.1250000   0.3750000), wk =   0.0039062
        k(  189) = (   0.2500000  -0.1250000  -0.5000000), wk =   0.0039062
        k(  190) = (   0.2500000  -0.1250000  -0.3750000), wk =   0.0039062
        k(  191) = (   0.2500000  -0.1250000  -0.2500000), wk =   0.0039062
        k(  192) = (   0.2500000  -0.1250000  -0.1250000), wk =   0.0039062
        k(  193) = (   0.3750000  -0.0000000   0.0000000), wk =   0.0039062
        k(  194) = (   0.3750000  -0.0000000   0.1250000), wk =   0.0039062
        k(  195) = (   0.3750000  -0.0000000   0.2500000), wk =   0.0039062
        k(  196) = (   0.3750000  -0.0000000   0.3750000), wk =   0.0039062
        k(  197) = (   0.3750000  -0.0000000  -0.5000000), wk =   0.0039062
        k(  198) = (   0.3750000  -0.0000000  -0.3750000), wk =   0.0039062
        k(  199) = (   0.3750000  -0.0000000  -0.2500000), wk =   0.0039062
        k(  200) = (   0.3750000  -0.0000000  -0.1250000), wk =   0.0039062
        k(  201) = (   0.3750000   0.1250000   0.0000000), wk =   0.0039062
        k(  202) = (   0.3750000   0.1250000   0.1250000), wk =   0.0039062
        k(  203) = (   0.3750000   0.1250000   0.2500000), wk =   0.0039062
        k(  204) = (   0.3750000   0.1250000   0.3750000), wk =   0.0039062
        k(  205) = (   0.3750000   0.1250000  -0.5000000), wk =   0.0039062
        k(  206) = (   0.3750000   0.1250000  -0.3750000), wk =   0.0039062
        k(  207) = (   0.3750000   0.1250000  -0.2500000), wk =   0.0039062
        k(  208) = (   0.3750000   0.1250000  -0.1250000), wk =   0.0039062
        k(  209) = (   0.3750000   0.2500000   0.0000000), wk =   0.0039062
        k(  210) = (   0.3750000   0.2500000   0.1250000), wk =   0.0039062
        k(  211) = (   0.3750000   0.2500000   0.2500000), wk =   0.0039062
        k(  212) = (   0.3750000   0.2500000   0.3750000), wk =   0.0039062
        k(  213) = (   0.3750000   0.2500000  -0.5000000), wk =   0.0039062
        k(  214) = (   0.3750000   0.2500000  -0.3750000), wk =   0.0039062
        k(  215) = (   0.3750000   0.2500000  -0.2500000), wk =   0.0039062
        k(  216) = (   0.3750000   0.2500000  -0.1250000), wk =   0.0039062
        k(  217) = (   0.3750000   0.3750000   0.0000000), wk =   0.0039062
        k(  218) = (   0.3750000   0.3750000   0.1250000), wk =   0.0039062
        k(  219) = (   0.3750000   0.3750000   0.2500000), wk =   0.0039062
        k(  220) = (   0.3750000   0.3750000   0.3750000), wk =   0.0039062
        k(  221) = (   0.3750000   0.3750000  -0.5000000), wk =   0.0039062
        k(  222) = (   0.3750000   0.3750000  -0.3750000), wk =   0.0039062
        k(  223) = (   0.3750000   0.3750000  -0.2500000), wk =   0.0039062
        k(  224) = (   0.3750000   0.3750000  -0.1250000), wk =   0.0039062
        k(  225) = (   0.3750000  -0.5000000  -0.0000000), wk =   0.0039062
        k(  226) = (   0.3750000  -0.5000000   0.1250000), wk =   0.0039062
        k(  227) = (   0.3750000  -0.5000000   0.2500000), wk =   0.0039062
        k(  228) = (   0.3750000  -0.5000000   0.3750000), wk =   0.0039062
        k(  229) = (   0.3750000  -0.5000000  -0.5000000), wk =   0.0039062
        k(  230) = (   0.3750000  -0.5000000  -0.3750000), wk =   0.0039062
        k(  231) = (   0.3750000  -0.5000000  -0.2500000), wk =   0.0039062
        k(  232) = (   0.3750000  -0.5000000  -0.1250000), wk =   0.0039062
        k(  233) = (   0.3750000  -0.3750000  -0.0000000), wk =   0.0039062
        k(  234) = (   0.3750000  -0.3750000   0.1250000), wk =   0.0039062
        k(  235) = (   0.3750000  -0.3750000   0.2500000), wk =   0.0039062
        k(  236) = (   0.3750000  -0.3750000   0.3750000), wk =   0.0039062
        k(  237) = (   0.3750000  -0.3750000  -0.5000000), wk =   0.0039062
        k(  238) = (   0.3750000  -0.3750000  -0.3750000), wk =   0.0039062
        k(  239) = (   0.3750000  -0.3750000  -0.2500000), wk =   0.0039062
        k(  240) = (   0.3750000  -0.3750000  -0.1250000), wk =   0.0039062
        k(  241) = (   0.3750000  -0.2500000   0.0000000), wk =   0.0039062
        k(  242) = (   0.3750000  -0.2500000   0.1250000), wk =   0.0039062
        k(  243) = (   0.3750000  -0.2500000   0.2500000), wk =   0.0039062
        k(  244) = (   0.3750000  -0.2500000   0.3750000), wk =   0.0039062
        k(  245) = (   0.3750000  -0.2500000  -0.5000000), wk =   0.0039062
        k(  246) = (   0.3750000  -0.2500000  -0.3750000), wk =   0.0039062
        k(  247) = (   0.3750000  -0.2500000  -0.2500000), wk =   0.0039062
        k(  248) = (   0.3750000  -0.2500000  -0.1250000), wk =   0.0039062
        k(  249) = (   0.3750000  -0.1250000  -0.0000000), wk =   0.0039062
        k(  250) = (   0.3750000  -0.1250000   0.1250000), wk =   0.0039062
        k(  251) = (   0.3750000  -0.1250000   0.2500000), wk =   0.0039062
        k(  252) = (   0.3750000  -0.1250000   0.3750000), wk =   0.0039062
        k(  253) = (   0.3750000  -0.1250000  -0.5000000), wk =   0.0039062
        k(  254) = (   0.3750000  -0.1250000  -0.3750000), wk =   0.0039062
        k(  255) = (   0.3750000  -0.1250000  -0.2500000), wk =   0.0039062
        k(  256) = (   0.3750000  -0.1250000  -0.1250000), wk =   0.0039062
        k(  257) = (  -0.5000000  -0.0000000   0.0000000), wk =   0.0039062
        k(  258) = (  -0.5000000  -0.0000000   0.1250000), wk =   0.0039062
        k(  259) = (  -0.5000000   0.0000000   0.2500000), wk =   0.0039062
        k(  260) = (  -0.5000000   0.0000000   0.3750000), wk =   0.0039062
        k(  261) = (  -0.5000000  -0.0000000  -0.5000000), wk =   0.0039062
        k(  262) = (  -0.5000000  -0.0000000  -0.3750000), wk =   0.0039062
        k(  263) = (  -0.5000000  -0.0000000  -0.2500000), wk =   0.0039062
        k(  264) = (  -0.5000000   0.0000000  -0.1250000), wk =   0.0039062
        k(  265) = (  -0.5000000   0.1250000   0.0000000), wk =   0.0039062
        k(  266) = (  -0.5000000   0.1250000   0.1250000), wk =   0.0039062
        k(  267) = (  -0.5000000   0.1250000   0.2500000), wk =   0.0039062
        k(  268) = (  -0.5000000   0.1250000   0.3750000), wk =   0.0039062
        k(  269) = (  -0.5000000   0.1250000  -0.5000000), wk =   0.0039062
        k(  270) = (  -0.5000000   0.1250000  -0.3750000), wk =   0.0039062
        k(  271) = (  -0.5000000   0.1250000  -0.2500000), wk =   0.0039062
        k(  272) = (  -0.5000000   0.1250000  -0.1250000), wk =   0.0039062
        k(  273) = (  -0.5000000   0.2500000  -0.0000000), wk =   0.0039062
        k(  274) = (  -0.5000000   0.2500000   0.1250000), wk =   0.0039062
        k(  275) = (  -0.5000000   0.2500000   0.2500000), wk =   0.0039062
        k(  276) = (  -0.5000000   0.2500000   0.3750000), wk =   0.0039062
        k(  277) = (  -0.5000000   0.2500000  -0.5000000), wk =   0.0039062
        k(  278) = (  -0.5000000   0.2500000  -0.3750000), wk =   0.0039062
        k(  279) = (  -0.5000000   0.2500000  -0.2500000), wk =   0.0039062
        k(  280) = (  -0.5000000   0.2500000  -0.1250000), wk =   0.0039062
        k(  281) = (  -0.5000000   0.3750000   0.0000000), wk =   0.0039062
        k(  282) = (  -0.5000000   0.3750000   0.1250000), wk =   0.0039062
        k(  283) = (  -0.5000000   0.3750000   0.2500000), wk =   0.0039062
        k(  284) = (  -0.5000000   0.3750000   0.3750000), wk =   0.0039062
        k(  285) = (  -0.5000000   0.3750000  -0.5000000), wk =   0.0039062
        k(  286) = (  -0.5000000   0.3750000  -0.3750000), wk =   0.0039062
        k(  287) = (  -0.5000000   0.3750000  -0.2500000), wk =   0.0039062
        k(  288) = (  -0.5000000   0.3750000  -0.1250000), wk =   0.0039062
        k(  289) = (  -0.5000000  -0.5000000   0.0000000), wk =   0.0039062
        k(  290) = (  -0.5000000  -0.5000000   0.1250000), wk =   0.0039062
        k(  291) = (  -0.5000000  -0.5000000   0.2500000), wk =   0.0039062
        k(  292) = (  -0.5000000  -0.5000000   0.3750000), wk =   0.0039062
        k(  293) = (  -0.5000000  -0.5000000  -0.5000000), wk =   0.0039062
        k(  294) = (  -0.5000000  -0.5000000  -0.3750000), wk =   0.0039062
        k(  295) = (  -0.5000000  -0.5000000  -0.2500000), wk =   0.0039062
        k(  296) = (  -0.5000000  -0.5000000  -0.1250000), wk =   0.0039062
        k(  297) = (  -0.5000000  -0.3750000   0.0000000), wk =   0.0039062
        k(  298) = (  -0.5000000  -0.3750000   0.1250000), wk =   0.0039062
        k(  299) = (  -0.5000000  -0.3750000   0.2500000), wk =   0.0039062
        k(  300) = (  -0.5000000  -0.3750000   0.3750000), wk =   0.0039062
        k(  301) = (  -0.5000000  -0.3750000  -0.5000000), wk =   0.0039062
        k(  302) = (  -0.5000000  -0.3750000  -0.3750000), wk =   0.0039062
        k(  303) = (  -0.5000000  -0.3750000  -0.2500000), wk =   0.0039062
        k(  304) = (  -0.5000000  -0.3750000  -0.1250000), wk =   0.0039062
        k(  305) = (  -0.5000000  -0.2500000  -0.0000000), wk =   0.0039062
        k(  306) = (  -0.5000000  -0.2500000   0.1250000), wk =   0.0039062
        k(  307) = (  -0.5000000  -0.2500000   0.2500000), wk =   0.0039062
        k(  308) = (  -0.5000000  -0.2500000   0.3750000), wk =   0.0039062
        k(  309) = (  -0.5000000  -0.2500000  -0.5000000), wk =   0.0039062
        k(  310) = (  -0.5000000  -0.2500000  -0.3750000), wk =   0.0039062
        k(  311) = (  -0.5000000  -0.2500000  -0.2500000), wk =   0.0039062
        k(  312) = (  -0.5000000  -0.2500000  -0.1250000), wk =   0.0039062
        k(  313) = (  -0.5000000  -0.1250000  -0.0000000), wk =   0.0039062
        k(  314) = (  -0.5000000  -0.1250000   0.1250000), wk =   0.0039062
        k(  315) = (  -0.5000000  -0.1250000   0.2500000), wk =   0.0039062
        k(  316) = (  -0.5000000  -0.1250000   0.3750000), wk =   0.0039062
        k(  317) = (  -0.5000000  -0.1250000  -0.5000000), wk =   0.0039062
        k(  318) = (  -0.5000000  -0.1250000  -0.3750000), wk =   0.0039062
        k(  319) = (  -0.5000000  -0.1250000  -0.2500000), wk =   0.0039062
        k(  320) = (  -0.5000000  -0.1250000  -0.1250000), wk =   0.0039062
        k(  321) = (  -0.3750000   0.0000000  -0.0000000), wk =   0.0039062
        k(  322) = (  -0.3750000   0.0000000   0.1250000), wk =   0.0039062
        k(  323) = (  -0.3750000   0.0000000   0.2500000), wk =   0.0039062
        k(  324) = (  -0.3750000   0.0000000   0.3750000), wk =   0.0039062
        k(  325) = (  -0.3750000   0.0000000  -0.5000000), wk =   0.0039062
        k(  326) = (  -0.3750000   0.0000000  -0.3750000), wk =   0.0039062
        k(  327) = (  -0.3750000   0.0000000  -0.2500000), wk =   0.0039062
        k(  328) = (  -0.3750000   0.0000000  -0.1250000), wk =   0.0039062
        k(  329) = (  -0.3750000   0.1250000   0.0000000), wk =   0.0039062
        k(  330) = (  -0.3750000   0.1250000   0.1250000), wk =   0.0039062
        k(  331) = (  -0.3750000   0.1250000   0.2500000), wk =   0.0039062
        k(  332) = (  -0.3750000   0.1250000   0.3750000), wk =   0.0039062
        k(  333) = (  -0.3750000   0.1250000  -0.5000000), wk =   0.0039062
        k(  334) = (  -0.3750000   0.1250000  -0.3750000), wk =   0.0039062
        k(  335) = (  -0.3750000   0.1250000  -0.2500000), wk =   0.0039062
        k(  336) = (  -0.3750000   0.1250000  -0.1250000), wk =   0.0039062
        k(  337) = (  -0.3750000   0.2500000  -0.0000000), wk =   0.0039062
        k(  338) = (  -0.3750000   0.2500000   0.1250000), wk =   0.0039062
        k(  339) = (  -0.3750000   0.2500000   0.2500000), wk =   0.0039062
        k(  340) = (  -0.3750000   0.2500000   0.3750000), wk =   0.0039062
        k(  341) = (  -0.3750000   0.2500000  -0.5000000), wk =   0.0039062
        k(  342) = (  -0.3750000   0.2500000  -0.3750000), wk =   0.0039062
        k(  343) = (  -0.3750000   0.2500000  -0.2500000), wk =   0.0039062
        k(  344) = (  -0.3750000   0.2500000  -0.1250000), wk =   0.0039062
        k(  345) = (  -0.3750000   0.3750000   0.0000000), wk =   0.0039062
        k(  346) = (  -0.3750000   0.3750000   0.1250000), wk =   0.0039062
        k(  347) = (  -0.3750000   0.3750000   0.2500000), wk =   0.0039062
        k(  348) = (  -0.3750000   0.3750000   0.3750000), wk =   0.0039062
        k(  349) = (  -0.3750000   0.3750000  -0.5000000), wk =   0.0039062
        k(  350) = (  -0.3750000   0.3750000  -0.3750000), wk =   0.0039062
        k(  351) = (  -0.3750000   0.3750000  -0.2500000), wk =   0.0039062
        k(  352) = (  -0.3750000   0.3750000  -0.1250000), wk =   0.0039062
        k(  353) = (  -0.3750000  -0.5000000  -0.0000000), wk =   0.0039062
        k(  354) = (  -0.3750000  -0.5000000   0.1250000), wk =   0.0039062
        k(  355) = (  -0.3750000  -0.5000000   0.2500000), wk =   0.0039062
        k(  356) = (  -0.3750000  -0.5000000   0.3750000), wk =   0.0039062
        k(  357) = (  -0.3750000  -0.5000000  -0.5000000), wk =   0.0039062
        k(  358) = (  -0.3750000  -0.5000000  -0.3750000), wk =   0.0039062
        k(  359) = (  -0.3750000  -0.5000000  -0.2500000), wk =   0.0039062
        k(  360) = (  -0.3750000  -0.5000000  -0.1250000), wk =   0.0039062
        k(  361) = (  -0.3750000  -0.3750000  -0.0000000), wk =   0.0039062
        k(  362) = (  -0.3750000  -0.3750000   0.1250000), wk =   0.0039062
        k(  363) = (  -0.3750000  -0.3750000   0.2500000), wk =   0.0039062
        k(  364) = (  -0.3750000  -0.3750000   0.3750000), wk =   0.0039062
        k(  365) = (  -0.3750000  -0.3750000  -0.5000000), wk =   0.0039062
        k(  366) = (  -0.3750000  -0.3750000  -0.3750000), wk =   0.0039062
        k(  367) = (  -0.3750000  -0.3750000  -0.2500000), wk =   0.0039062
        k(  368) = (  -0.3750000  -0.3750000  -0.1250000), wk =   0.0039062
        k(  369) = (  -0.3750000  -0.2500000  -0.0000000), wk =   0.0039062
        k(  370) = (  -0.3750000  -0.2500000   0.1250000), wk =   0.0039062
        k(  371) = (  -0.3750000  -0.2500000   0.2500000), wk =   0.0039062
        k(  372) = (  -0.3750000  -0.2500000   0.3750000), wk =   0.0039062
        k(  373) = (  -0.3750000  -0.2500000  -0.5000000), wk =   0.0039062
        k(  374) = (  -0.3750000  -0.2500000  -0.3750000), wk =   0.0039062
        k(  375) = (  -0.3750000  -0.2500000  -0.2500000), wk =   0.0039062
        k(  376) = (  -0.3750000  -0.2500000  -0.1250000), wk =   0.0039062
        k(  377) = (  -0.3750000  -0.1250000  -0.0000000), wk =   0.0039062
        k(  378) = (  -0.3750000  -0.1250000   0.1250000), wk =   0.0039062
        k(  379) = (  -0.3750000  -0.1250000   0.2500000), wk =   0.0039062
        k(  380) = (  -0.3750000  -0.1250000   0.3750000), wk =   0.0039062
        k(  381) = (  -0.3750000  -0.1250000  -0.5000000), wk =   0.0039062
        k(  382) = (  -0.3750000  -0.1250000  -0.3750000), wk =   0.0039062
        k(  383) = (  -0.3750000  -0.1250000  -0.2500000), wk =   0.0039062
        k(  384) = (  -0.3750000  -0.1250000  -0.1250000), wk =   0.0039062
        k(  385) = (  -0.2500000  -0.0000000   0.0000000), wk =   0.0039062
        k(  386) = (  -0.2500000   0.0000000   0.1250000), wk =   0.0039062
        k(  387) = (  -0.2500000   0.0000000   0.2500000), wk =   0.0039062
        k(  388) = (  -0.2500000   0.0000000   0.3750000), wk =   0.0039062
        k(  389) = (  -0.2500000   0.0000000  -0.5000000), wk =   0.0039062
        k(  390) = (  -0.2500000  -0.0000000  -0.3750000), wk =   0.0039062
        k(  391) = (  -0.2500000  -0.0000000  -0.2500000), wk =   0.0039062
        k(  392) = (  -0.2500000  -0.0000000  -0.1250000), wk =   0.0039062
        k(  393) = (  -0.2500000   0.1250000  -0.0000000), wk =   0.0039062
        k(  394) = (  -0.2500000   0.1250000   0.1250000), wk =   0.0039062
        k(  395) = (  -0.2500000   0.1250000   0.2500000), wk =   0.0039062
        k(  396) = (  -0.2500000   0.1250000   0.3750000), wk =   0.0039062
        k(  397) = (  -0.2500000   0.1250000  -0.5000000), wk =   0.0039062
        k(  398) = (  -0.2500000   0.1250000  -0.3750000), wk =   0.0039062
        k(  399) = (  -0.2500000   0.1250000  -0.2500000), wk =   0.0039062
        k(  400) = (  -0.2500000   0.1250000  -0.1250000), wk =   0.0039062
        k(  401) = (  -0.2500000   0.2500000   0.0000000), wk =   0.0039062
        k(  402) = (  -0.2500000   0.2500000   0.1250000), wk =   0.0039062
        k(  403) = (  -0.2500000   0.2500000   0.2500000), wk =   0.0039062
        k(  404) = (  -0.2500000   0.2500000   0.3750000), wk =   0.0039062
        k(  405) = (  -0.2500000   0.2500000  -0.5000000), wk =   0.0039062
        k(  406) = (  -0.2500000   0.2500000  -0.3750000), wk =   0.0039062
        k(  407) = (  -0.2500000   0.2500000  -0.2500000), wk =   0.0039062
        k(  408) = (  -0.2500000   0.2500000  -0.1250000), wk =   0.0039062
        k(  409) = (  -0.2500000   0.3750000   0.0000000), wk =   0.0039062
        k(  410) = (  -0.2500000   0.3750000   0.1250000), wk =   0.0039062
        k(  411) = (  -0.2500000   0.3750000   0.2500000), wk =   0.0039062
        k(  412) = (  -0.2500000   0.3750000   0.3750000), wk =   0.0039062
        k(  413) = (  -0.2500000   0.3750000  -0.5000000), wk =   0.0039062
        k(  414) = (  -0.2500000   0.3750000  -0.3750000), wk =   0.0039062
        k(  415) = (  -0.2500000   0.3750000  -0.2500000), wk =   0.0039062
        k(  416) = (  -0.2500000   0.3750000  -0.1250000), wk =   0.0039062
        k(  417) = (  -0.2500000  -0.5000000  -0.0000000), wk =   0.0039062
        k(  418) = (  -0.2500000  -0.5000000   0.1250000), wk =   0.0039062
        k(  419) = (  -0.2500000  -0.5000000   0.2500000), wk =   0.0039062
        k(  420) = (  -0.2500000  -0.5000000   0.3750000), wk =   0.0039062
        k(  421) = (  -0.2500000  -0.5000000  -0.5000000), wk =   0.0039062
        k(  422) = (  -0.2500000  -0.5000000  -0.3750000), wk =   0.0039062
        k(  423) = (  -0.2500000  -0.5000000  -0.2500000), wk =   0.0039062
        k(  424) = (  -0.2500000  -0.5000000  -0.1250000), wk =   0.0039062
        k(  425) = (  -0.2500000  -0.3750000   0.0000000), wk =   0.0039062
        k(  426) = (  -0.2500000  -0.3750000   0.1250000), wk =   0.0039062
        k(  427) = (  -0.2500000  -0.3750000   0.2500000), wk =   0.0039062
        k(  428) = (  -0.2500000  -0.3750000   0.3750000), wk =   0.0039062
        k(  429) = (  -0.2500000  -0.3750000  -0.5000000), wk =   0.0039062
        k(  430) = (  -0.2500000  -0.3750000  -0.3750000), wk =   0.0039062
        k(  431) = (  -0.2500000  -0.3750000  -0.2500000), wk =   0.0039062
        k(  432) = (  -0.2500000  -0.3750000  -0.1250000), wk =   0.0039062
        k(  433) = (  -0.2500000  -0.2500000   0.0000000), wk =   0.0039062
        k(  434) = (  -0.2500000  -0.2500000   0.1250000), wk =   0.0039062
        k(  435) = (  -0.2500000  -0.2500000   0.2500000), wk =   0.0039062
        k(  436) = (  -0.2500000  -0.2500000   0.3750000), wk =   0.0039062
        k(  437) = (  -0.2500000  -0.2500000  -0.5000000), wk =   0.0039062
        k(  438) = (  -0.2500000  -0.2500000  -0.3750000), wk =   0.0039062
        k(  439) = (  -0.2500000  -0.2500000  -0.2500000), wk =   0.0039062
        k(  440) = (  -0.2500000  -0.2500000  -0.1250000), wk =   0.0039062
        k(  441) = (  -0.2500000  -0.1250000  -0.0000000), wk =   0.0039062
        k(  442) = (  -0.2500000  -0.1250000   0.1250000), wk =   0.0039062
        k(  443) = (  -0.2500000  -0.1250000   0.2500000), wk =   0.0039062
        k(  444) = (  -0.2500000  -0.1250000   0.3750000), wk =   0.0039062
        k(  445) = (  -0.2500000  -0.1250000  -0.5000000), wk =   0.0039062
        k(  446) = (  -0.2500000  -0.1250000  -0.3750000), wk =   0.0039062
        k(  447) = (  -0.2500000  -0.1250000  -0.2500000), wk =   0.0039062
        k(  448) = (  -0.2500000  -0.1250000  -0.1250000), wk =   0.0039062
        k(  449) = (  -0.1250000  -0.0000000   0.0000000), wk =   0.0039062
        k(  450) = (  -0.1250000   0.0000000   0.1250000), wk =   0.0039062
        k(  451) = (  -0.1250000  -0.0000000   0.2500000), wk =   0.0039062
        k(  452) = (  -0.1250000  -0.0000000   0.3750000), wk =   0.0039062
        k(  453) = (  -0.1250000   0.0000000  -0.5000000), wk =   0.0039062
        k(  454) = (  -0.1250000   0.0000000  -0.3750000), wk =   0.0039062
        k(  455) = (  -0.1250000   0.0000000  -0.2500000), wk =   0.0039062
        k(  456) = (  -0.1250000  -0.0000000  -0.1250000), wk =   0.0039062
        k(  457) = (  -0.1250000   0.1250000   0.0000000), wk =   0.0039062
        k(  458) = (  -0.1250000   0.1250000   0.1250000), wk =   0.0039062
        k(  459) = (  -0.1250000   0.1250000   0.2500000), wk =   0.0039062
        k(  460) = (  -0.1250000   0.1250000   0.3750000), wk =   0.0039062
        k(  461) = (  -0.1250000   0.1250000  -0.5000000), wk =   0.0039062
        k(  462) = (  -0.1250000   0.1250000  -0.3750000), wk =   0.0039062
        k(  463) = (  -0.1250000   0.1250000  -0.2500000), wk =   0.0039062
        k(  464) = (  -0.1250000   0.1250000  -0.1250000), wk =   0.0039062
        k(  465) = (  -0.1250000   0.2500000   0.0000000), wk =   0.0039062
        k(  466) = (  -0.1250000   0.2500000   0.1250000), wk =   0.0039062
        k(  467) = (  -0.1250000   0.2500000   0.2500000), wk =   0.0039062
        k(  468) = (  -0.1250000   0.2500000   0.3750000), wk =   0.0039062
        k(  469) = (  -0.1250000   0.2500000  -0.5000000), wk =   0.0039062
        k(  470) = (  -0.1250000   0.2500000  -0.3750000), wk =   0.0039062
        k(  471) = (  -0.1250000   0.2500000  -0.2500000), wk =   0.0039062
        k(  472) = (  -0.1250000   0.2500000  -0.1250000), wk =   0.0039062
        k(  473) = (  -0.1250000   0.3750000   0.0000000), wk =   0.0039062
        k(  474) = (  -0.1250000   0.3750000   0.1250000), wk =   0.0039062
        k(  475) = (  -0.1250000   0.3750000   0.2500000), wk =   0.0039062
        k(  476) = (  -0.1250000   0.3750000   0.3750000), wk =   0.0039062
        k(  477) = (  -0.1250000   0.3750000  -0.5000000), wk =   0.0039062
        k(  478) = (  -0.1250000   0.3750000  -0.3750000), wk =   0.0039062
        k(  479) = (  -0.1250000   0.3750000  -0.2500000), wk =   0.0039062
        k(  480) = (  -0.1250000   0.3750000  -0.1250000), wk =   0.0039062
        k(  481) = (  -0.1250000  -0.5000000   0.0000000), wk =   0.0039062
        k(  482) = (  -0.1250000  -0.5000000   0.1250000), wk =   0.0039062
        k(  483) = (  -0.1250000  -0.5000000   0.2500000), wk =   0.0039062
        k(  484) = (  -0.1250000  -0.5000000   0.3750000), wk =   0.0039062
        k(  485) = (  -0.1250000  -0.5000000  -0.5000000), wk =   0.0039062
        k(  486) = (  -0.1250000  -0.5000000  -0.3750000), wk =   0.0039062
        k(  487) = (  -0.1250000  -0.5000000  -0.2500000), wk =   0.0039062
[...]

    -2.8726  -1.1527   8.2217  12.9444  15.6987  16.0429  16.4835  17.1548

     occupation numbers 
     1.0000   1.0000   1.0000   0.0000   0.0000   0.0000   0.0000   0.0000

          k =-0.1234 0.0712-0.1415 (   910 PWs)   bands (ev):

    -3.3689  -0.0454   6.2269  15.0249  15.3634  15.6844  17.1697  17.9270

     occupation numbers 
     1.0000   1.0000   1.0000   0.0000   0.0000   0.0000   0.0000   0.0000

          k =-0.1252 0.0698-0.0694 (   908 PWs)   bands (ev):

    -3.6620   1.2163   4.4372  14.8635  15.2872  17.1686  17.8764  18.6523

     occupation numbers 
     1.0000   1.0000   1.0000   0.0000   0.0000   0.0000   0.0000   0.0000

          k =-0.1306 0.2057 0.0048 (   905 PWs)   bands (ev):

    -2.9946   2.8712   4.0848  11.0951  12.8838  16.1353  16.9991  17.6277

     occupation numbers 
     1.0000   1.0000   1.0000   0.0000   0.0000   0.0000   0.0000   0.0000

          k =-0.1324 0.2044 0.0770 (   899 PWs)   bands (ev):

    -2.8807   1.7990   5.3604  11.2011  12.8903  15.3300  17.2516  17.3498

     occupation numbers 
     1.0000   1.0000   1.0000   0.0000   0.0000   0.0000   0.0000   0.0000

          k =-0.1342 0.2030 0.1491 (   897 PWs)   bands (ev):

    -2.5635   0.5552   7.1676  11.4868  13.0477  14.2737  15.7707  16.4940

     occupation numbers 
     1.0000   1.0000   1.0000   0.0000   0.0000   0.0000   0.0000   0.0000

          k =-0.1359 0.2017 0.2212 (   900 PWs)   bands (ev):

    -2.0441  -0.5264   9.1559  11.9141  13.0169  13.2832  14.0521  15.5603

     occupation numbers 
     1.0000   1.0000   1.0000   0.0000   0.0000   0.0000   0.0000   0.0000

          k =-0.1235 0.2111-0.2837 (   900 PWs)   bands (ev):

    -1.4193  -1.3248  10.9833  11.2232  12.5969  12.7243  14.1814  14.7500

     occupation numbers 
     1.0000   1.0000   0.0000   0.0000   0.0000   0.0000   0.0000   0.0000

          k =-0.1252 0.2097-0.2116 (   901 PWs)   bands (ev):

    -2.1154  -0.4092   8.9140  11.8355  13.2811  13.5375  14.3724  14.8561

     occupation numbers 
     1.0000   1.0000   1.0000   0.0000   0.0000   0.0000   0.0000   0.0000

          k =-0.1270 0.2084-0.1394 (   902 PWs)   bands (ev):

    -2.6112   0.6935   6.9444  11.4287  13.3579  14.4123  15.6739  16.0726

     occupation numbers 
     1.0000   1.0000   1.0000   0.0000   0.0000   0.0000   0.0000   0.0000

          k =-0.1288 0.2071-0.0673 (   908 PWs)   bands (ev):

    -2.9046   1.9508   5.1657  11.1721  13.0466  15.4740  16.5323  17.5251

     occupation numbers 
     1.0000   1.0000   1.0000   0.0000   0.0000   0.0000   0.0000   0.0000

          k =-0.1342 0.3429 0.0069 (   899 PWs)   bands (ev):

    -1.5098   4.3200   5.4896   7.0490  11.4196  12.4435  13.8144  16.2525

     occupation numbers 
     1.0000   1.0000   1.0000   1.0000   0.0000   0.0000   0.0000   0.0000

          k =-0.1360 0.3416 0.0790 (   902 PWs)   bands (ev):

    -1.3979   3.2574   6.7199   7.1853  11.3621  11.5988  14.8010  16.2066

     occupation numbers 
     1.0000   1.0000   1.0000   1.0000   0.0000   0.0000   0.0000   0.0000

          k =-0.1378 0.3403 0.1512 (   902 PWs)   bands (ev):

    -1.0837   2.0221   7.4423   8.5014  10.4376  11.6327  15.0453  16.0206

     occupation numbers 
     1.0000   1.0000   1.0000   1.0000   0.0000   0.0000   0.0000   0.0000

          k =-0.1396 0.3389 0.2233 (   901 PWs)   bands (ev):

    -0.5687   0.9473   7.9411   9.2208  10.6682  11.9733  14.1529  14.7246

     occupation numbers 
     1.0000   1.0000   1.0000   1.0000   0.0000   0.0000   0.0000   0.0000

          k =-0.1271 0.3483-0.2816 (   904 PWs)   bands (ev):

     0.0596   0.1450   8.4732   8.6117  12.0935  12.4892  13.0160  13.5447

     occupation numbers 
     1.0000   1.0000   1.0000   1.0000   0.0000   0.0000   0.0000   0.0000

          k =-0.1289 0.3470-0.2095 (   903 PWs)   bands (ev):

    -0.6331   1.0530   7.8372   9.3568  10.4783  12.4408  13.3876  14.9625

     occupation numbers 
     1.0000   1.0000   1.0000   0.9985   0.0000   0.0000   0.0000   0.0000

          k =-0.1307 0.3456-0.1374 (   901 PWs)   bands (ev):

    -1.1268   2.1467   7.3733   8.3171  10.6236  11.9446  14.1845  15.9733

     occupation numbers 
     1.0000   1.0000   1.0000   1.0000   0.0000   0.0000   0.0000   0.0000

          k =-0.1325 0.3443-0.0652 (   902 PWs)   bands (ev):

    -1.4195   3.3940   6.5584   7.1391  11.5954  11.7302  14.4410  15.5646

     occupation numbers 
     1.0000   1.0000   1.0000   1.0000   0.0000   0.0000   0.0000   0.0000

          k =-0.1087-0.6176-0.0077 (   899 PWs)   bands (ev):

     0.6525   3.5473   6.4887   7.4431   9.1172  10.5837  10.7321  15.5276

     occupation numbers 
     1.0000   1.0000   1.0000   1.0000   1.0000   0.0000   0.0000   0.0000

          k =-0.1105-0.6189 0.0644 (   892 PWs)   bands (ev):

     0.7626   3.6591   5.4055   7.9508   8.9679  10.6523  11.7640  15.4898

     occupation numbers 
     1.0000   1.0000   1.0000   1.0000   1.0000   0.0000   0.0000   0.0000

          k =-0.1123-0.6203 0.1366 (   901 PWs)   bands (ev):

     1.0726   3.8990   4.2492   6.9143  10.5589  10.8826  13.2412  14.6948

     occupation numbers 
     1.0000   1.0000   1.0000   1.0000   0.0000   0.0000   0.0000   0.0000

          k =-0.1141-0.6216 0.2087 (   902 PWs)   bands (ev):

     1.5810   3.0805   4.5077   5.9050  11.1911  12.3920  13.4025  15.1390

     occupation numbers 
     1.0000   1.0000   1.0000   1.0000   0.0000   0.0000   0.0000   0.0000

          k =-0.1016-0.6122-0.2962 (   905 PWs)   bands (ev):

     2.2080   2.2845   5.0608   5.1965  11.7179  12.3604  14.3245  14.5151

     occupation numbers 
     1.0000   1.0000   1.0000   1.0000   0.0000   0.0000   0.0000   0.0000

          k =-0.1034-0.6136-0.2241 (   904 PWs)   bands (ev):

     1.5230   3.1719   4.4096   6.0729  11.6880  12.0425  12.7729  14.9176

     occupation numbers 
     1.0000   1.0000   1.0000   1.0000   0.0000   0.0000   0.0000   0.0000

          k =-0.1051-0.6149-0.1520 (   901 PWs)   bands (ev):

     1.0337   3.8559   4.3367   7.1102  10.4134  11.1688  12.7888  13.9596

     occupation numbers 
     1.0000   1.0000   1.0000   1.0000   0.0000   0.0000   0.0000   0.0000

          k =-0.1069-0.6162-0.0798 (   899 PWs)   bands (ev):

     0.7430   3.6247   5.5300   8.0951   8.8723  10.7984  11.5058  14.6419

     occupation numbers 
     1.0000   1.0000   1.0000   1.0000   1.0000   0.0000   0.0000   0.0000

          k =-0.1124-0.4804-0.0056 (   889 PWs)   bands (ev):

     0.5359   3.6963   6.3645   7.3555   9.2664  10.5146  10.8116  15.4230

     occupation numbers 
     1.0000   1.0000   1.0000   1.0000   1.0000   0.0000   0.0000   0.0000

          k =-0.1141-0.4817 0.0665 (   895 PWs)   bands (ev):

     0.6532   3.7956   5.2500   8.1106   8.9636  10.5249  11.8355  15.3967

     occupation numbers 
     1.0000   1.0000   1.0000   1.0000   1.0000   0.0000   0.0000   0.0000

          k =-0.1159-0.4831 0.1387 (   903 PWs)   bands (ev):

     0.9706   3.8893   4.2357   7.1121  10.5418  10.7402  13.2520  14.6368

     occupation numbers 
     1.0000   1.0000   1.0000   1.0000   0.0000   0.0000   0.0000   0.0000

          k =-0.1177-0.4844 0.2108 (   904 PWs)   bands (ev):

     1.4866   2.9306   4.6309   6.0965  11.0803  12.3582  13.2881  15.1299

     occupation numbers 
     1.0000   1.0000   1.0000   1.0000   0.0000   0.0000   0.0000   0.0000

          k =-0.1052-0.4750-0.2941 (   907 PWs)   bands (ev):

     2.0638   2.1979   5.2441   5.3103  11.6059  12.2584  14.1755  14.5035

     occupation numbers 
     1.0000   1.0000   1.0000   1.0000   0.0000   0.0000   0.0000   0.0000

          k =-0.1070-0.4763-0.2220 (   901 PWs)   bands (ev):

     1.3854   3.0966   4.5804   6.1764  11.5577  11.9376  12.6342  15.0735

     occupation numbers 
     1.0000   1.0000   1.0000   1.0000   0.0000   0.0000   0.0000   0.0000

          k =-0.1088-0.4777-0.1499 (   895 PWs)   bands (ev):

     0.9031   3.9817   4.3052   7.1996  10.2445  11.0813  12.8385  13.9922

     occupation numbers 
     1.0000   1.0000   1.0000   1.0000   0.0000   0.0000   0.0000   0.0000

          k =-0.1106-0.4790-0.0777 (   896 PWs)   bands (ev):

     0.6194   3.7829   5.4630   8.0704   8.8259  10.7106  11.6748  14.5408

     occupation numbers 
     1.0000   1.0000   1.0000   1.0000   1.0000   0.0000   0.0000   0.0000

          k =-0.1160-0.3432-0.0035 (   894 PWs)   bands (ev):

    -1.5978   4.2285   5.4124   7.2401  11.0868  12.6210  13.9561  15.9534

     occupation numbers 
     1.0000   1.0000   1.0000   1.0000   0.0000   0.0000   0.0000   0.0000

          k =-0.1178-0.3445 0.0686 (   895 PWs)   bands (ev):

    -1.4804   3.1368   6.6951   7.3538  11.0928  11.7653  14.8317  15.9535

     occupation numbers 
     1.0000   1.0000   1.0000   1.0000   0.0000   0.0000   0.0000   0.0000

          k =-0.1196-0.3458 0.1407 (   900 PWs)   bands (ev):

    -1.1609   1.9043   7.6091   8.4858  10.6775  11.2789  14.7494  15.9846

     occupation numbers 
     1.0000   1.0000   1.0000   1.0000   0.0000   0.0000   0.0000   0.0000

          k =-0.1214-0.3472 0.2129 (   897 PWs)   bands (ev):

    -0.6404   0.8340   8.0970   9.4381  10.6700  11.6273  13.8240  14.6114

     occupation numbers 
     1.0000   1.0000   1.0000   0.9662   0.0000   0.0000   0.0000   0.0000

          k =-0.1089-0.3378-0.2921 (   894 PWs)   bands (ev):

    -0.0490   0.0789   8.7027   8.7522  11.8707  12.3824  12.7585  13.3194

     occupation numbers 
     1.0000   1.0000   1.0000   1.0000   0.0000   0.0000   0.0000   0.0000

          k =-0.1107-0.3391-0.2199 (   896 PWs)   bands (ev):

    -0.7368   0.9926   8.0558   9.4351  10.3963  12.1443  13.0384  14.9519

     occupation numbers 
     1.0000   1.0000   1.0000   0.9699   0.0000   0.0000   0.0000   0.0000

          k =-0.1124-0.3405-0.1478 (   896 PWs)   bands (ev):

    -1.2253   2.0918   7.5686   8.2054  10.7321  11.6389  13.8521  16.1320

     occupation numbers 
     1.0000   1.0000   1.0000   1.0000   0.0000   0.0000   0.0000   0.0000

          k =-0.1142-0.3418-0.0757 (   889 PWs)   bands (ev):

    -1.5128   3.3433   6.4325   7.3393  11.2522  11.8637  14.4476  15.4607

     occupation numbers 
     1.0000   1.0000   1.0000   1.0000   0.0000   0.0000   0.0000   0.0000

          k =-0.1196-0.2059-0.0014 (   908 PWs)   bands (ev):

    -3.0479   2.8152   4.0374  11.3114  12.3549  16.3511  16.7575  17.4499

     occupation numbers 
     1.0000   1.0000   1.0000   0.0000   0.0000   0.0000   0.0000   0.0000

          k =-0.1214-0.2073 0.0707 (   906 PWs)   bands (ev):

    -2.9308   1.7259   5.3367  11.4013  12.3614  15.5927  16.9142  17.1848

     occupation numbers 
     1.0000   1.0000   1.0000   0.0000   0.0000   0.0000   0.0000   0.0000

          k =-0.1232-0.2086 0.1428 (   902 PWs)   bands (ev):

    -2.6103   0.4838   7.1492  11.6714  12.5272  14.5216  15.6826  16.0621

     occupation numbers 
     1.0000   1.0000   1.0000   0.0000   0.0000   0.0000   0.0000   0.0000

          k =-0.1250-0.2100 0.2150 (   896 PWs)   bands (ev):

    -2.0876  -0.5950   9.1427  12.0815  12.6419  13.4639  13.8943  15.0873

     occupation numbers 
     1.0000   1.0000   1.0000   0.0000   0.0000   0.0000   0.0000   0.0000

          k =-0.1125-0.2006-0.2900 (   901 PWs)   bands (ev):

    -1.4851  -1.3649  10.8948  11.2248  12.7933  12.8953  13.6751  14.2696

     occupation numbers 
     1.0000   1.0000   0.0000   0.0000   0.0000   0.0000   0.0000   0.0000

          k =-0.1143-0.2019-0.2178 (   900 PWs)   bands (ev):

    -2.1782  -0.4462   8.8283  12.0936  13.0507  13.6055  14.1390  14.3532

     occupation numbers 
     1.0000   1.0000   1.0000   0.0000   0.0000   0.0000   0.0000   0.0000

          k =-0.1161-0.2033-0.1457 (   898 PWs)   bands (ev):

    -2.6709   0.6599   6.8621  11.6770  12.8434  14.5085  15.1886  16.0885

     occupation numbers 
     1.0000   1.0000   1.0000   0.0000   0.0000   0.0000   0.0000   0.0000

          k =-0.1179-0.2046-0.0736 (   905 PWs)   bands (ev):

    -2.9612   1.9194   5.0875  11.4043  12.5211  15.5658  16.0880  17.6316

     occupation numbers 
     1.0000   1.0000   1.0000   0.0000   0.0000   0.0000   0.0000   0.0000

     the Fermi energy is     9.5242 ev

!    total energy              =     -15.77679530 Ry
     estimated scf accuracy    <       0.00649449 Ry
     smearing contrib. (-TS)   =      -0.00011120 Ry
     internal energy E=F+TS    =     -15.77668410 Ry

     The total energy is F=E-TS. E is the sum of the following terms:
     one-electron contribution =       8.45416529 Ry
     hartree contribution      =       0.09176624 Ry
     xc contribution           =      -4.78972822 Ry
     ewald contribution        =     -19.53288740 Ry

     convergence has been achieved in   1 iterations

     Forces acting on atoms (cartesian axes, Ry/au):

     atom    1 type  1   force =     0.00142942   -0.00184741    0.00026912
     atom    2 type  1   force =    -0.00142942    0.00184741   -0.00026912
     The non-local contrib.  to forces
     atom    1 type  1   force =    -0.00020343   -0.00451610    0.00373370
     atom    2 type  1   force =     0.00021577    0.00450905   -0.00372118
     The ionic contribution  to forces
     atom    1 type  1   force =    -0.00830755    0.01853610    0.00151852
     atom    2 type  1   force =     0.00830755   -0.01853610   -0.00151852
     The local contribution  to forces
     atom    1 type  1   force =     0.01050955   -0.01694349   -0.00595256
     atom    2 type  1   force =    -0.01052284    0.01694899    0.00594581
     The core correction contribution to forces
     atom    1 type  1   force =     0.00000000    0.00000000    0.00000000
     atom    2 type  1   force =     0.00000000    0.00000000    0.00000000
     The Hubbard contrib.    to forces
     atom    1 type  1   force =     0.00000000    0.00000000    0.00000000
     atom    2 type  1   force =     0.00000000    0.00000000    0.00000000
     The SCF correction term to forces
     atom    1 type  1   force =    -0.00056935    0.00107521    0.00097245
     atom    2 type  1   force =     0.00056989   -0.00107541   -0.00097225

     Total force =     0.003325     Total SCF correction =     0.002203
     SCF correction compared to forces is large: reduce conv_thr to get better values


     Computing stress (Cartesian axis) and pressure

          total   stress  (Ry/bohr**3)                   (kbar)     P=     -100.14
  -0.00089295   0.00006312   0.00000742         -131.36        9.28        1.09
   0.00006312  -0.00078234  -0.00005222            9.28     -115.09       -7.68
   0.00000742  -0.00005222  -0.00036699            1.09       -7.68      -53.99

     kinetic stress (kbar)   2758.93      8.92      0.78
                                8.92   2777.63     -7.42
                                0.78     -7.42   2853.53

     local   stress (kbar)  -1030.88     48.89     40.65
                               48.89   -751.16      4.22
                               40.65      4.22   -680.47

     nonloc. stress (kbar)   3468.95     -7.76    -10.37
                               -7.76   3424.25     -0.61
                              -10.37     -0.61   3430.74

     hartree stress (kbar)     33.75     -2.39     -0.65
                               -2.39     18.41     -0.19
                               -0.65     -0.19     11.64

     exc-cor stress (kbar)  -1011.61      0.00      0.00
                                0.00  -1011.61      0.00
                                0.00      0.00  -1011.61

     corecor stress (kbar)      0.00      0.00      0.00
                                0.00      0.00      0.00
                                0.00      0.00      0.00

     ewald   stress (kbar)  -4350.50    -38.38    -29.32
                              -38.38  -4572.62     -3.67
                              -29.32     -3.67  -4657.81

     hubbard stress (kbar)      0.00      0.00      0.00
                                0.00      0.00      0.00
                                0.00      0.00      0.00

     DFT-D   stress (kbar)      0.00      0.00      0.00
                                0.00      0.00      0.00
                                0.00      0.00      0.00

     XDM     stress (kbar)      0.00      0.00      0.00
                                0.00      0.00      0.00
                                0.00      0.00      0.00

     dft-nl  stress (kbar)      0.00      0.00      0.00
                                0.00      0.00      0.00
                                0.00      0.00      0.00

     TS-vdW  stress (kbar)      0.00      0.00      0.00
                                0.00      0.00      0.00
                                0.00      0.00      0.00

     MDB     stress (kbar)      0.00      0.00      0.00
                                0.00      0.00      0.00
                                0.00      0.00      0.00

     3D-RISM stress (kbar)      0.00      0.00      0.00
                                0.00      0.00      0.00
                                0.00      0.00      0.00


     Writing all to output data dir ../tmp/Si/Si.save/ :
     XML data file, charge density, pseudopotentials, collected wavefunctions

     init_run     :      2.24s CPU      2.30s WALL (       1 calls)
     electrons    :     13.38s CPU     14.33s WALL (       1 calls)
     forces       :      0.16s CPU      0.16s WALL (       1 calls)
     stress       :      1.94s CPU      1.96s WALL (       1 calls)

     Called by init_run:
     wfcinit      :      1.93s CPU      1.99s WALL (       1 calls)
     wfcinit:atom :      0.06s CPU      0.06s WALL (     512 calls)
     wfcinit:wfcr :      1.58s CPU      1.63s WALL (     512 calls)
     potinit      :      0.01s CPU      0.01s WALL (       1 calls)
     hinit0       :      0.25s CPU      0.25s WALL (       1 calls)

     Called by electrons:
     c_bands      :     11.94s CPU     12.87s WALL (       2 calls)
     sum_band     :      1.44s CPU      1.45s WALL (       2 calls)
     v_of_rho     :      0.00s CPU      0.00s WALL (       2 calls)
     v_h          :      0.00s CPU      0.00s WALL (       2 calls)
     v_xc         :      0.00s CPU      0.00s WALL (       2 calls)
     mix_rho      :      0.00s CPU      0.00s WALL (       2 calls)

     Called by c_bands:
     init_us_2    :      0.47s CPU      0.49s WALL (    3584 calls)
     cegterg      :     11.68s CPU     12.59s WALL (    1024 calls)

     Called by sum_band:
     sum_band:wei :      0.00s CPU      0.00s WALL (       2 calls)
     sum_band:loo :      1.43s CPU      1.45s WALL (       2 calls)
     sum_band:buf :      0.02s CPU      0.02s WALL (    1024 calls)
     sum_band:ini :      0.13s CPU      0.14s WALL (    1024 calls)

     Called by *egterg:
     cdiaghg      :      0.42s CPU      0.48s WALL (    4514 calls)
     cegterg:over :      0.25s CPU      0.26s WALL (    4002 calls)
     cegterg:upda :      0.21s CPU      0.25s WALL (    4002 calls)
     cegterg:last :      0.23s CPU      0.25s WALL (    3067 calls)
     h_psi        :     11.87s CPU     12.71s WALL (    5538 calls)
     g_psi        :      0.09s CPU      0.09s WALL (    4002 calls)

     Called by h_psi:
     h_psi:calbec :      0.15s CPU      0.16s WALL (    5538 calls)
     vloc_psi     :     11.49s CPU     12.29s WALL (    5538 calls)
     add_vuspsi   :      0.14s CPU      0.16s WALL (    5538 calls)

     General routines
     calbec       :      0.21s CPU      0.22s WALL (    8098 calls)
     fft          :      0.22s CPU      0.23s WALL (      11 calls)
     ffts         :      0.00s CPU      0.00s WALL (       2 calls)
     fftw         :     11.06s CPU     11.76s WALL (   73042 calls)


     PWSCF        :     17.80s CPU     18.92s WALL


   This run was terminated on:  19: 1:57   6May2024            

=------------------------------------------------------------------------------=
   JOB DONE.
=------------------------------------------------------------------------------=
